# vtk DataFile Version 1.0
Cube
ASCII

DATASET POLYDATA
POINTS 120 float
4.208044 4.570498 16.184720
1.424394 7.024386 17.399576
1.359256 3.159425 6.204811
4.142906 0.705536 4.989955
1.111233 -0.232953 13.856880
0.695356 1.078652 9.092388
3.084841 2.774139 12.027656
3.130493 1.251935 15.065915
2.662840 -0.770681 16.113745
0.660282 -2.218648 14.980835
1.150204 1.174415 11.369404
2.623868 2.627499 9.757357
3.894883 0.006437 19.727415
3.479006 2.786310 2.102377
0.301191 -3.000655 21.556640
0.346843 -1.478451 18.518381
5.446490 0.544165 17.470551
3.443932 1.992132 18.603461
3.933854 -1.400931 22.214892
5.407518 1.237463 1.437408
4.456067 7.962876 8.532650
4.871944 6.651271 13.297142
2.482459 4.955784 10.361875
2.436807 6.477987 7.323615
2.904460 8.500603 6.275785
4.907018 9.948571 7.408696
4.417096 6.555508 11.020127
2.943432 5.102424 12.632173
1.672417 7.723486 2.662115
2.088294 4.943613 20.287153
5.266109 10.730578 0.832891
5.220457 9.208374 3.871150
0.120810 7.185758 4.918980
2.123368 5.737791 3.786070
1.633446 9.130854 0.174638
0.159782 6.492460 20.952123
4.127596 -2.953117 16.453842
4.115905 1.860181 7.722821
4.959351 2.023259 11.896901
4.952670 0.695017 14.378333
0.315666 -0.337324 14.328404
0.063467 1.426070 9.678546
4.413199 1.881223 9.195156
3.722854 2.442871 11.436572
3.745679 0.554900 15.043525
3.476222 -0.651618 15.678269
0.039528 -1.526541 14.992030
0.339605 1.488333 11.039158
4.407631 -1.683776 15.671328
3.453953 2.360011 10.079990
1.343946 2.726601 17.130454
1.332255 2.004780 3.471944
2.175701 -2.249775 21.687395
2.169020 -0.921533 19.205963
3.099316 0.110809 19.255892
2.847117 2.438892 1.516219
1.629549 1.983739 1.999609
0.939204 -2.669387 22.147723
0.962029 -0.781415 18.540770
0.692572 0.425102 17.906027
2.823178 1.300025 18.592266
3.123255 2.376628 0.155607
1.623981 1.457261 17.912968
0.670303 1.504951 1.114775
1.439704 10.683039 5.935688
1.451395 5.869742 14.666710
0.607949 5.706664 10.492630
0.614630 7.034906 8.011198
5.251634 8.067247 8.061127
5.503833 6.303853 12.710984
1.154101 5.848700 13.194374
1.844446 5.287052 10.952958
1.821621 7.175023 7.346005
2.091078 8.381541 6.711262
5.527772 9.256464 7.397501
5.227695 6.241589 11.350372
1.159669 9.413699 6.718202
2.113347 5.369912 12.309540
4.223354 5.003322 5.259077
4.235045 5.725142 18.917586
3.391599 9.979698 0.702136
3.398280 8.651456 3.183567
2.467984 7.619114 3.133639
2.720183 5.291031 20.873311
3.937751 5.746184 20.389921
4.628096 10.399310 0.241807
4.605271 8.511338 3.848760
4.874728 7.304821 4.483503
2.744122 6.429898 3.797264
2.444045 5.353295 22.233923
3.943319 6.272662 4.476563
4.896997 6.224972 21.274756
5.364817 2.222746 13.605670
2.581167 -2.449262 19.978626
0.202483 5.507177 8.783861
2.986133 10.179184 2.410905
4.481677 3.247574 14.126898
5.095193 1.834541 6.926425
1.218682 2.406898 13.697019
2.926730 8.591818 16.652885
5.116905 8.232220 16.855958
2.923389 1.819856 7.350931
1.698027 -3.474090 19.457397
2.311543 2.030420 4.268340
4.002332 -2.633414 19.887276
0.143080 3.003067 16.931411
2.333255 3.362664 16.728338
0.139739 2.045105 3.843835
1.085624 4.482349 8.262632
0.472107 5.895382 15.463105
4.348618 5.323025 8.692511
2.640570 -0.861895 5.736645
0.450395 -0.502297 5.533572
2.643911 5.910066 15.038600
3.869274 11.204012 2.932133
3.255757 5.699502 18.121190
1.564968 10.363337 2.502254
5.424220 4.726856 5.458120
3.234045 4.367259 5.661193
5.427561 5.684818 18.545696
POINT_DATA 120
SCALARS my_scalars float
LOOKUP_TABLE default
2
2
2
2
1.09
1.09
1.09
1.09
1.09
1.09
1.09
1.09
1.09
1.09
1.09
1.09
1.09
1.09
1.09
1.09
1.09
1.09
1.09
1.09
1.09
1.09
1.09
1.09
1.09
1.09
1.09
1.09
1.09
1.09
1.09
1.09
1.7
1.7
1.7
1.7
1.7
1.7
1.7
1.7
1.7
1.7
1.7
1.7
1.7
1.7
1.7
1.7
1.7
1.7
1.7
1.7
1.7
1.7
1.7
1.7
1.7
1.7
1.7
1.7
1.7
1.7
1.7
1.7
1.7
1.7
1.7
1.7
1.7
1.7
1.7
1.7
1.7
1.7
1.7
1.7
1.7
1.7
1.7
1.7
1.7
1.7
1.7
1.7
1.7
1.7
1.7
1.7
1.8
1.8
1.8
1.8
1.52
1.52
1.52
1.52
1.52
1.52
1.52
1.52
1.52
1.52
1.52
1.52
1.52
1.52
1.52
1.52
1.52
1.52
1.52
1.52
1.52
1.52
1.52
1.52
VECTORS vectors float
0.4375 0 0
0.4375 0 0
0.4375 0 0
0.4375 0 0
0.25 0 0
0.25 0 0
0.25 0 0
0.25 0 0
0.25 0 0
0.25 0 0
0.25 0 0
0.25 0 0
0.25 0 0
0.25 0 0
0.25 0 0
0.25 0 0
0.25 0 0
0.25 0 0
0.25 0 0
0.25 0 0
0.25 0 0
0.25 0 0
0.25 0 0
0.25 0 0
0.25 0 0
0.25 0 0
0.25 0 0
0.25 0 0
0.25 0 0
0.25 0 0
0.25 0 0
0.25 0 0
0.25 0 0
0.25 0 0
0.25 0 0
0.25 0 0
0.3125 0 0
0.3125 0 0
0.3125 0 0
0.3125 0 0
0.3125 0 0
0.3125 0 0
0.3125 0 0
0.3125 0 0
0.3125 0 0
0.3125 0 0
0.3125 0 0
0.3125 0 0
0.3125 0 0
0.3125 0 0
0.3125 0 0
0.3125 0 0
0.3125 0 0
0.3125 0 0
0.3125 0 0
0.3125 0 0
0.3125 0 0
0.3125 0 0
0.3125 0 0
0.3125 0 0
0.3125 0 0
0.3125 0 0
0.3125 0 0
0.3125 0 0
0.3125 0 0
0.3125 0 0
0.3125 0 0
0.3125 0 0
0.3125 0 0
0.3125 0 0
0.3125 0 0
0.3125 0 0
0.3125 0 0
0.3125 0 0
0.3125 0 0
0.3125 0 0
0.3125 0 0
0.3125 0 0
0.3125 0 0
0.3125 0 0
0.3125 0 0
0.3125 0 0
0.3125 0 0
0.3125 0 0
0.3125 0 0
0.3125 0 0
0.3125 0 0
0.3125 0 0
0.3125 0 0
0.3125 0 0
0.3125 0 0
0.3125 0 0
0.125 0 0
0.125 0 0
0.125 0 0
0.125 0 0
0.03125 0 0
0.03125 0 0
0.03125 0 0
0.03125 0 0
0.03125 0 0
0.03125 0 0
0.03125 0 0
0.03125 0 0
0.03125 0 0
0.03125 0 0
0.03125 0 0
0.03125 0 0
0.03125 0 0
0.03125 0 0
0.03125 0 0
0.03125 0 0
0.03125 0 0
0.03125 0 0
0.03125 0 0
0.03125 0 0
0.03125 0 0
0.03125 0 0
0.03125 0 0
0.03125 0 0
