Compiler and run-time data
===========================================================================
RASPA 2.0.42
Compiled as a 64-bits application
Compiler: gcc 11.3.0
Compile Date = May 25 2023, Compile Time = 17:19:00

Tue Jun 27 18:32:04 2023
Simulation started on Tuesday, June 27.
The start time was 06:32 PM.

Hostname:    curie
OS type:     Linux on x86_64
OS release:  5.19.0-43-generic
OS version:  #44~22.04.1-Ubuntu SMP PREEMPT_DYNAMIC Mon May 22 13:39:36 UTC 2

Simulation
===========================================================================
Dimensions: 3
Random number seed: 1687883523
RASPA directory set to: /opt/.conda/envs/simple-adsorption-workflow/lib/python3.9/site-packages/RASPA2
String appended to output-files: 
Number of cycles: 2000
Number of initializing cycles: 1000
Number of equilibration cycles: 0
Print every: 200
Triclinic boundary condition applied
Timestep: 0.000500
	Degrees of freedom:                        0
	Translational Degrees of freedom:          0
	Rotational Degrees of freedom:             0
	Degrees of freedom Framework:              0


Mutual consistent basic set of units:
======================================
Unit of temperature: Kelvin
Unit of length:      1e-10 [m]
Unit of time:        1e-12 [s]
Unit of mass:        1.66054e-27 [kg]
Unit of charge:      1.60218e-19 [C/particle]

Derived units and their conversion factors:
===========================================
Unit of energy:              1.66054e-23 [J]
Unit of force:               1.66054e-13 [N]
Unit of pressure:            1.66054e+07 [Pa]
Unit of velocity:            100 [m/s]
Unit of acceleration:        1e-08 [m^2/s]
Unit of diffusion:           1e-08 [m^2/s]
Unit of dipole moment:       1.60218e-29 [C.m]
Unit of electric potential:  0.000103643 [V]
Unit of electric field:      1.03643e+06 [V]
Unit of polarizability:      1.54587e-35 [-]
Unit of Coulomb potential:   167101.0800066561  [K]
Unit of dielectric constant: 0.0000154587       [s^2 C^2/(kg m^3)]
Unit of wave vectors:        5.3088374589       [cm^1]
Boltzmann constant:          0.8314464919       [-]

Internal conversion factors:
===========================================
Energy to Kelvin:                                    1.2027242847
FH correction factor                                 2.0211930949
Heat capacity conversion factor:                    10.0000088723
From Debye to internal units:                        4.8032067991
Isothermal compressibility conversion factor:        0.0000000602

Energy conversion factors:
===========================================
From mdyne/A to kcal/mol/A^2:           143.933
From mdyne/A to kj/mol/A^2:             602.214
From mdyne/A to K/A^2:                  72429.7
From mdyne A/rad^2 to kcal/mol/deg^2:   0.0438444


Properties computed
===========================================================================
Movies: no
Radial Distribution Function: no
Number of molecules GCMC histogram: no
Histogram of the molecule positions: no
Free energy profiles: no
Pore Size Distribution Function: no
End-to-end distance: no
Histogram of the energy of the system: no
Compute thermodynamic factors: no
Framework spacing histograms: no
Residence times histograms: no
Distance histograms: no
Bend Angle histograms: no
Dihedral angle histograms: no
Angle between planes histograms: no
Molecule properties: no
Infra-red spectra: no
Mean-squared displacement using modified order-N algorithm: no
Velocity-autocorrelation function modified order-N algorithm: no
Rotational velocity-autocorrelation function modified order-N algorithm: no
Molecular orientation-autocorrelation function modified order-N algorithm: no
Bond orientation-autocorrelation function modified order-N algorithm: no
Mean-squared displacement (conventional algorithm): no
Velocity-autocorrelation function (conventional algorithm): no
3D density grid for adsorbates: no
Compute cation an/or adsorption sites: no
dcTST snapshots: no
Compute pressure and stress: no


VTK
===========================================================================
VTK fractional-range position framework atoms: [-0.001000,1.001000] [-0.001000,1.001000] [-0.001000,1.001000]
VTK fractional-range position framework bonds: [-0.151000,1.151000] [-0.151000,1.151000] [-0.151000,1.151000]
VTK fractional-range com-position adsorbate molecules: [-0.101000,1.101000] [-0.101000,1.101000] [-0.101000,1.101000]
VTK fractional-range com-position cation molecules: [-0.101000,1.101000] [-0.101000,1.101000] [-0.101000,1.101000]
	3D free energy grid made for the full simulation-cell


Thermo/Baro-stat NHC parameters
===========================================================================
External temperature: 298.15 [K]
Beta: 0.00403395 [energy unit]
External Pressure: 10 [Pa]


Thermostat chain-length: 3
Timescale parameter for thermostat: 0.150000 [ps]
Barostat chain-length:   3
Timescale parameter for barostat:   0.150000 [ps]

Number of Yoshida-Suzuki decomposition steps: 5
Number of respa steps: 5


Method and settings for electrostatics
===============================================================================
Dielectric constant of the medium : 1.000000
Charge from charge-equilibration: no
Ewald summation is used (exact solution of a periodic system)
Relative precision                : 1e-06
Alpha convergence parameter       : 0.265058
kvec (x,y,z)                      : 7 8 9


CFC-RXMC parameters
===========================================================================
Number of reactions: 0


Rattle parameters
===========================================================================
Distance constraint type: r^2-r^2_0
Bend angle constraint type: theta-theta_0
Dihedral angle constraint type: phi-phi_0
Inversion-bend angle constraint type: chi-chi_0
Out-of-plane distance constraint type: r-r_0


Spectra parameters
===========================================================================
Compute normal modes: no


Minimization parameters
===========================================================================
Generalized coordinates are: Cartesian center-of-mass, elements of the orientational matrix p1,p2,p3 and strain
Potential derivatives are evaluated: analytically
Translation of the system is removed from the generalized Hessian: no
Rotation of the system is removed from the generalized Hessian: no
Maximum step-length: 0.3
Convergence factor: 1
Maximum number of minimization steps: 10000
Use gradients in the line-minimizations: yes
RMS gradient tolerance: 1e-06
Maximum gradient tolerance: 1e-06

Distance constraints: 0
Angle constraints: 0
Dihedral constraints: 0

Improper dihedral constraints: 0

Inversion-bend constraints: 0

Out-of-plane constraints: 0

Harmonic distance constraints: 0
Harmonic angle constraints: 0
Harmonic dihedral constraints: 0

Dihedral mid-point measurements: 0

All framework atoms are fixed

Fixed adsorbate atoms:  
Fixed adsorbate groups (center-of-mass):  
Fixed adsorbate groups (orientation):  

Fixed cation atoms:  
Fixed cation groups (center-of-mass):  
Fixed cation groups (orientation):  


dcTST parameters
===========================================================================
Free energy profiles computed: no
Free energy profiles written every 5000 cycles
Free energy mapping: mapped to a,b,c-coordinates
BarrierPosition:       0.0000000000       0.0000000000       0.0000000000
BarrierNormal:         0.0000000000       0.0000000000       0.0000000000
Start with a molecule on top of the barrier: no
Maximum distance to barrier (e.g. distance to minumum free energy):       0.0000000000 [A]
Maximum trajectory time:      10.0000000000 [ps]
Each configuration is used with 5 different initial velocities


Cbmc parameters
===========================================================================
Biasing method: using only the VDW part
Number of trial positions:                                       10
Number of trial positions (reinsertion):                         10
Number of trial positions (partial reinsertion):                 10
Number of trial positions (identity-change):                     10
Number of trial positions (Gibbs particle transfer):             10
Number of trial positions (insertion/deletion):                  10
Number of trial positions (Widom insertion):                     10
Number of trial positions coupled Torsion-selection:             100
Number of trial positions first bead:                            10
Number of trial positions first bead (reinsertion):              10
Number of trial positions first bead (partial reinsertion):      10
Number of trial positions first bead (identity-change):          10
Number of trial positions first bead (Gibbs particle transfer):  10
Number of trial positions first bead (insertion/deletion):       10
Number of trial positions first bead (Widom insertion):          10
Number of trial moves per open bead:                             150
Target acceptance ratio small-mc scheme:                         0.400000
Energy overlap criteria:                                         1e+07
Minimal Rosenbluth factor:                                       1e-150


Pseudo atoms: 112
===========================================================================
Pseudo Atom[   0] Name UNIT     Oxidation:          Element: H    pdb-name: H    Scat. Types:   1   1 Mass=1.000000000  B-factor:0.000   
                 Charge=1.000000000          Polarization=0.000000000  [A^3] (considered a charged atom and no polarization)  Interactions: yes
                 Anisotropic factor:    0.000 [-] (Absolute), Radius:    1.000 [A], Framework-atom:  no
Pseudo Atom[   1] Name Mof_Rb   Oxidation: +0       Element: Rb   pdb-name: Rb   Scat. Types:  38  37 Mass=85.467000000 B-factor:1.000   
                 Charge=0.000000000          Polarization=0.000000000  [A^3] (considered a chargeless atom and no polarization)  Interactions: yes
                 Anisotropic factor:    0.000 [-] (Relative), Radius:    1.000 [A], Framework-atom:  no
Pseudo Atom[   2] Name Mof_Sr   Oxidation: +0       Element: Sr   pdb-name: Sr   Scat. Types:  39  38 Mass=87.630000000 B-factor:1.000   
                 Charge=0.000000000          Polarization=0.000000000  [A^3] (considered a chargeless atom and no polarization)  Interactions: yes
                 Anisotropic factor:    0.000 [-] (Relative), Radius:    1.000 [A], Framework-atom:  no
Pseudo Atom[   3] Name Mof_Cs   Oxidation: +0       Element: Cs   pdb-name: Cs   Scat. Types:  56  55 Mass=132.905000000 B-factor:1.000   
                 Charge=0.000000000          Polarization=0.000000000  [A^3] (considered a chargeless atom and no polarization)  Interactions: yes
                 Anisotropic factor:    0.000 [-] (Relative), Radius:    1.000 [A], Framework-atom:  no
Pseudo Atom[   4] Name Mof_Zn   Oxidation: +0       Element: Zn   pdb-name: Zn   Scat. Types:  31  30 Mass=65.380000000 B-factor:1.000   
                 Charge=0.000000000          Polarization=0.000000000  [A^3] (considered a chargeless atom and no polarization)  Interactions: yes
                 Anisotropic factor:    0.000 [-] (Relative), Radius:    1.448 [A], Framework-atom:  no
Pseudo Atom[   5] Name Mof_Zr   Oxidation: +0       Element: Zr   pdb-name: Zr   Scat. Types:  41  40 Mass=91.224000000 B-factor:1.000   
                 Charge=0.000000000          Polarization=0.000000000  [A^3] (considered a chargeless atom and no polarization)  Interactions: yes
                 Anisotropic factor:    0.000 [-] (Relative), Radius:    1.448 [A], Framework-atom:  no
Pseudo Atom[   6] Name Mof_Cu   Oxidation: +0       Element: Cu   pdb-name: Cu   Scat. Types:  30  29 Mass=63.546000000 B-factor:1.000   
                 Charge=0.000000000          Polarization=0.000000000  [A^3] (considered a chargeless atom and no polarization)  Interactions: yes
                 Anisotropic factor:    0.000 [-] (Relative), Radius:    1.448 [A], Framework-atom:  no
Pseudo Atom[   7] Name Mof_Cr   Oxidation: +0       Element: Cr   pdb-name: Cr   Scat. Types:  25  24 Mass=51.996100000 B-factor:1.000   
                 Charge=0.000000000          Polarization=0.000000000  [A^3] (considered a chargeless atom and no polarization)  Interactions: yes
                 Anisotropic factor:    0.000 [-] (Relative), Radius:    1.448 [A], Framework-atom:  no
Pseudo Atom[   8] Name Mof_Ni   Oxidation: +0       Element: Ni   pdb-name: Ni   Scat. Types:  29  28 Mass=58.693000000 B-factor:1.000   
                 Charge=0.000000000          Polarization=0.000000000  [A^3] (considered a chargeless atom and no polarization)  Interactions: yes
                 Anisotropic factor:    0.000 [-] (Relative), Radius:    1.448 [A], Framework-atom:  no
Pseudo Atom[   9] Name Mof_V    Oxidation: +0       Element: V    pdb-name: V    Scat. Types:  24  23 Mass=50.940000000 B-factor:1.000   
                 Charge=0.000000000          Polarization=0.000000000  [A^3] (considered a chargeless atom and no polarization)  Interactions: yes
                 Anisotropic factor:    0.000 [-] (Relative), Radius:    1.448 [A], Framework-atom:  no
Pseudo Atom[  10] Name Mof_N    Oxidation: +0       Element: N    pdb-name: N    Scat. Types:   8   7 Mass=14.000000000 B-factor:1.000   
                 Charge=0.000000000          Polarization=0.000000000  [A^3] (considered a chargeless atom and no polarization)  Interactions: yes
                 Anisotropic factor:    0.000 [-] (Relative), Radius:    1.448 [A], Framework-atom:  no
Pseudo Atom[  11] Name Mof_O    Oxidation: +0       Element: O    pdb-name: O    Scat. Types:   9   8 Mass=15.999400000 B-factor:1.000   
                 Charge=0.000000000          Polarization=0.000000000  [A^3] (considered a chargeless atom and no polarization)  Interactions: yes
                 Anisotropic factor:    0.000 [-] (Relative), Radius:    0.680 [A], Framework-atom:  no
Pseudo Atom[  12] Name Mof_C    Oxidation: +0       Element: C    pdb-name: C    Scat. Types:   7   6 Mass=12.010700000 B-factor:1.000   
                 Charge=0.000000000          Polarization=0.000000000  [A^3] (considered a chargeless atom and no polarization)  Interactions: yes
                 Anisotropic factor:    0.000 [-] (Relative), Radius:    0.720 [A], Framework-atom:  no
Pseudo Atom[  13] Name Mof_H    Oxidation: +0       Element: H    pdb-name: H    Scat. Types:   1   1 Mass=1.007940000  B-factor:1.000   
                 Charge=0.000000000          Polarization=0.000000000  [A^3] (considered a chargeless atom and no polarization)  Interactions: yes
                 Anisotropic factor:    0.000 [-] (Relative), Radius:    0.320 [A], Framework-atom:  no
Pseudo Atom[  14] Name Mof_F    Oxidation: +0       Element: F    pdb-name: F    Scat. Types:  10   9 Mass=19.000000000 B-factor:1.000   
                 Charge=0.000000000          Polarization=0.000000000  [A^3] (considered a chargeless atom and no polarization)  Interactions: yes
                 Anisotropic factor:    0.000 [-] (Relative), Radius:    1.448 [A], Framework-atom:  no
Pseudo Atom[  15] Name Mof_Cl   Oxidation: +0       Element: Cl   pdb-name: Cl   Scat. Types:  18  17 Mass=35.450000000 B-factor:1.000   
                 Charge=0.000000000          Polarization=0.000000000  [A^3] (considered a chargeless atom and no polarization)  Interactions: yes
                 Anisotropic factor:    0.000 [-] (Relative), Radius:    1.448 [A], Framework-atom:  no
Pseudo Atom[  16] Name Mof_Br   Oxidation: +0       Element: Br   pdb-name: Br   Scat. Types:  36  35 Mass=79.900000000 B-factor:1.000   
                 Charge=0.000000000          Polarization=0.000000000  [A^3] (considered a chargeless atom and no polarization)  Interactions: yes
                 Anisotropic factor:    0.000 [-] (Relative), Radius:    1.448 [A], Framework-atom:  no
Pseudo Atom[  17] Name Mof_B    Oxidation: +0       Element: B    pdb-name: B    Scat. Types:   6   4 Mass=10.810000000 B-factor:1.000   
                 Charge=0.000000000          Polarization=0.000000000  [A^3] (considered a chargeless atom and no polarization)  Interactions: yes
                 Anisotropic factor:    0.000 [-] (Relative), Radius:    1.448 [A], Framework-atom:  no
Pseudo Atom[  18] Name Mof_W    Oxidation: +0       Element: W    pdb-name: W    Scat. Types:  75  74 Mass=183.340000000 B-factor:1.000   
                 Charge=0.000000000          Polarization=0.000000000  [A^3] (considered a chargeless atom and no polarization)  Interactions: yes
                 Anisotropic factor:    0.000 [-] (Relative), Radius:    1.448 [A], Framework-atom:  no
Pseudo Atom[  19] Name Mof_P    Oxidation: +0       Element: P    pdb-name: P    Scat. Types:  16  15 Mass=30.973800000 B-factor:1.000   
                 Charge=0.000000000          Polarization=0.000000000  [A^3] (considered a chargeless atom and no polarization)  Interactions: yes
                 Anisotropic factor:    0.000 [-] (Relative), Radius:    1.448 [A], Framework-atom:  no
Pseudo Atom[  20] Name Mof_Fe   Oxidation: +0       Element: Fe   pdb-name: Fe   Scat. Types:  27  26 Mass=55.850000000 B-factor:1.000   
                 Charge=0.000000000          Polarization=0.000000000  [A^3] (considered a chargeless atom and no polarization)  Interactions: yes
                 Anisotropic factor:    0.000 [-] (Relative), Radius:    1.448 [A], Framework-atom:  no
Pseudo Atom[  21] Name Mof_Co   Oxidation: +0       Element: Co   pdb-name: Co   Scat. Types:  28  27 Mass=58.930000000 B-factor:1.000   
                 Charge=0.000000000          Polarization=0.000000000  [A^3] (considered a chargeless atom and no polarization)  Interactions: yes
                 Anisotropic factor:    0.000 [-] (Relative), Radius:    1.448 [A], Framework-atom:  no
Pseudo Atom[  22] Name Mof_Mg   Oxidation: +0       Element: Mg   pdb-name: Mg   Scat. Types:  13  12 Mass=24.300000000 B-factor:1.000   
                 Charge=0.000000000          Polarization=0.000000000  [A^3] (considered a chargeless atom and no polarization)  Interactions: yes
                 Anisotropic factor:    0.000 [-] (Relative), Radius:    1.000 [A], Framework-atom:  no
Pseudo Atom[  23] Name M_nh3    Oxidation: +0       Element: N    pdb-name: N    Scat. Types:   8   7 Mass=0.000000000  B-factor:1.000   
                 Charge=0.000000000          Polarization=0.000000000  [A^3] (considered a chargeless atom and no polarization)  Interactions: yes
                 Anisotropic factor:    0.000 [-] (Relative), Radius:    1.000 [A], Framework-atom:  no
Pseudo Atom[  24] Name N_nh3    Oxidation: +0       Element: N    pdb-name: N    Scat. Types:   8   7 Mass=14.000000000 B-factor:1.000   
                 Charge=-1.386000000         Polarization=0.000000000  [A^3] (considered a charged atom and no polarization)  Interactions: yes
                 Anisotropic factor:    0.000 [-] (Relative), Radius:    1.000 [A], Framework-atom:  no
Pseudo Atom[  25] Name H_nh3    Oxidation: +0       Element: H    pdb-name: H    Scat. Types:   1   1 Mass=1.008000000  B-factor:1.000   
                 Charge=0.462000000          Polarization=0.000000000  [A^3] (considered a charged atom and no polarization)  Interactions: yes
                 Anisotropic factor:    0.000 [-] (Relative), Radius:    1.000 [A], Framework-atom:  no
Pseudo Atom[  26] Name Li       Oxidation: +0       Element: Li   pdb-name: Li   Scat. Types:   4   3 Mass=6.941000000  B-factor:1.000   
                 Charge=1.000000000          Polarization=0.000000000  [A^3] (considered a charged atom and no polarization)  Interactions: yes
                 Anisotropic factor:    0.000 [-] (Relative), Radius:    1.000 [A], Framework-atom:  no
Pseudo Atom[  27] Name Na       Oxidation: +0       Element: Na   pdb-name: Na   Scat. Types:  12  11 Mass=22.989770000 B-factor:1.000   
                 Charge=1.000000000          Polarization=0.000000000  [A^3] (considered a charged atom and no polarization)  Interactions: yes
                 Anisotropic factor:    0.000 [-] (Relative), Radius:    1.000 [A], Framework-atom:  no
Pseudo Atom[  28] Name Cl       Oxidation: +0       Element: Cl   pdb-name: Cl   Scat. Types:  18  17 Mass=35.453000000 B-factor:1.000   
                 Charge=-1.000000000         Polarization=0.000000000  [A^3] (considered a charged atom and no polarization)  Interactions: yes
                 Anisotropic factor:    0.000 [-] (Relative), Radius:    1.000 [A], Framework-atom:  no
Pseudo Atom[  29] Name He       Oxidation: +0       Element: He   pdb-name: He   Scat. Types:   3   2 Mass=4.002602000  B-factor:1.000   
                 Charge=0.000000000          Polarization=0.000000000  [A^3] (considered a chargeless atom and no polarization)  Interactions: yes
                 Anisotropic factor:    0.000 [-] (Relative), Radius:    1.000 [A], Framework-atom:  no
Pseudo Atom[  30] Name Xe       Oxidation: +0       Element: Xe   pdb-name: Xe   Scat. Types:  55  54 Mass=131.290000000 B-factor:1.000   
                 Charge=0.000000000          Polarization=0.000000000  [A^3] (considered a chargeless atom and no polarization)  Interactions: yes
                 Anisotropic factor:    0.000 [-] (Relative), Radius:    1.000 [A], Framework-atom:  no
Pseudo Atom[  31] Name Kr       Oxidation: +0       Element: Kr   pdb-name: Kr   Scat. Types:  37  36 Mass=83.798000000 B-factor:1.000   
                 Charge=0.000000000          Polarization=0.000000000  [A^3] (considered a chargeless atom and no polarization)  Interactions: yes
                 Anisotropic factor:    0.000 [-] (Relative), Radius:    1.000 [A], Framework-atom:  no
Pseudo Atom[  32] Name O_o2     Oxidation: +0       Element: O    pdb-name: O    Scat. Types:   9   8 Mass=15.999400000 B-factor:1.000   
                 Charge=-0.113000000         Polarization=0.000000000  [A^3] (considered a charged atom and no polarization)  Interactions: yes
                 Anisotropic factor:    0.000 [-] (Relative), Radius:    1.448 [A], Framework-atom:  no
Pseudo Atom[  33] Name O_com    Oxidation: +0       Element: O    pdb-name: O    Scat. Types:   9   8 Mass=0.000000000  B-factor:1.000   
                 Charge=0.226000000          Polarization=0.000000000  [A^3] (considered a charged atom and no polarization)  Interactions: yes
                 Anisotropic factor:    0.000 [-] (Relative), Radius:    1.448 [A], Framework-atom:  no
Pseudo Atom[  34] Name O_OH     Oxidation: +0       Element: O    pdb-name: O    Scat. Types:   9   8 Mass=15.999400000 B-factor:1.000   
                 Charge=-1.250000000         Polarization=0.000000000  [A^3] (considered a charged atom and no polarization)  Interactions: yes
                 Anisotropic factor:    0.000 [-] (Relative), Radius:    1.448 [A], Framework-atom:  no
Pseudo Atom[  35] Name H_OH     Oxidation: +0       Element: H    pdb-name: H    Scat. Types:   1   1 Mass=1.007940000  B-factor:1.000   
                 Charge=0.250000000          Polarization=0.000000000  [A^3] (considered a charged atom and no polarization)  Interactions: yes
                 Anisotropic factor:    0.000 [-] (Relative), Radius:    1.000 [A], Framework-atom:  no
Pseudo Atom[  36] Name C_benz   Oxidation: +0       Element: C    pdb-name: C    Scat. Types:   7   6 Mass=12.010700000 B-factor:1.000   
                 Charge=-0.095000000         Polarization=0.000000000  [A^3] (considered a charged atom and no polarization)  Interactions: yes
                 Anisotropic factor:    0.000 [-] (Relative), Radius:    1.448 [A], Framework-atom:  no
Pseudo Atom[  37] Name H_benz   Oxidation: +0       Element: H    pdb-name: H    Scat. Types:   1   1 Mass=1.007940000  B-factor:1.000   
                 Charge=0.095000000          Polarization=0.000000000  [A^3] (considered a charged atom and no polarization)  Interactions: yes
                 Anisotropic factor:    0.000 [-] (Relative), Radius:    1.448 [A], Framework-atom:  no
Pseudo Atom[  38] Name CH4_sp3  Oxidation: +0       Element: C    pdb-name: C    Scat. Types:   7   6 Mass=16.042460000 B-factor:1.000   
                 Charge=0.000000000          Polarization=0.000000000  [A^3] (considered a chargeless atom and no polarization)  Interactions: yes
                 Anisotropic factor:    0.000 [-] (Relative), Radius:    1.000 [A], Framework-atom:  no
Pseudo Atom[  39] Name C_co2    Oxidation: +0       Element: C    pdb-name: C    Scat. Types:   7   6 Mass=12.010700000 B-factor:1.000   
                 Charge=0.700000000          Polarization=1.508000000  [A^3] (considered a charged atom and polarizable)  Interactions: yes
                 Anisotropic factor:    0.000 [-] (Relative), Radius:    0.720 [A], Framework-atom:  no
Pseudo Atom[  40] Name O_co2    Oxidation: +0       Element: O    pdb-name: O    Scat. Types:   9   8 Mass=15.999400000 B-factor:1.000   
                 Charge=-0.350000000         Polarization=0.947500000  [A^3] (considered a charged atom and polarizable)  Interactions: yes
                 Anisotropic factor:    0.000 [-] (Relative), Radius:    0.680 [A], Framework-atom:  no
Pseudo Atom[  41] Name N_n2     Oxidation: +0       Element: N    pdb-name: N    Scat. Types:   8   7 Mass=14.006740000 B-factor:1.000   
                 Charge=-0.482000000         Polarization=0.000000000  [A^3] (considered a charged atom and no polarization)  Interactions: yes
                 Anisotropic factor:    0.000 [-] (Relative), Radius:    0.700 [A], Framework-atom:  no
Pseudo Atom[  42] Name N_com    Oxidation: +0       Element: N    pdb-name: N    Scat. Types:   8   7 Mass=0.000000000  B-factor:1.000   
                 Charge=0.964000000          Polarization=0.000000000  [A^3] (considered a charged atom and no polarization)  Interactions: yes
                 Anisotropic factor:    0.000 [-] (Relative), Radius:    0.700 [A], Framework-atom:  no
Pseudo Atom[  43] Name H_h2     Oxidation: +0       Element: H    pdb-name: H    Scat. Types:   1   1 Mass=1.007940000  B-factor:1.000   
                 Charge=0.468000000          Polarization=0.000000000  [A^3] (considered a charged atom and no polarization)  Interactions: yes
                 Anisotropic factor:    0.000 [-] (Relative), Radius:    0.700 [A], Framework-atom:  no
Pseudo Atom[  44] Name H_com    Oxidation: +0       Element: H    pdb-name: H    Scat. Types:   1   1 Mass=0.000000000  B-factor:1.000   
                 Charge=-0.936000000         Polarization=0.000000000  [A^3] (considered a charged atom and no polarization)  Interactions: yes
                 Anisotropic factor:    0.000 [-] (Relative), Radius:    0.700 [A], Framework-atom:  no
Pseudo Atom[  45] Name Ow       Oxidation: +0       Element: O    pdb-name: O    Scat. Types:   9   8 Mass=15.999400000 B-factor:1.000   
                 Charge=-0.847600000         Polarization=0.000000000  [A^3] (considered a charged atom and no polarization)  Interactions: yes
                 Anisotropic factor:    0.000 [-] (Relative), Radius:    1.000 [A], Framework-atom:  no
Pseudo Atom[  46] Name Hw       Oxidation: +0       Element: H    pdb-name: H    Scat. Types:   1   1 Mass=1.007940000  B-factor:1.000   
                 Charge=0.423800000          Polarization=0.000000000  [A^3] (considered a charged atom and no polarization)  Interactions: yes
                 Anisotropic factor:    0.000 [-] (Relative), Radius:    1.000 [A], Framework-atom:  no
Pseudo Atom[  47] Name As_AsH3  Oxidation: +0       Element: As   pdb-name: As   Scat. Types:  34  33 Mass=74.920000000 B-factor:1.000   
                 Charge=0.120000000          Polarization=0.000000000  [A^3] (considered a charged atom and no polarization)  Interactions: yes
                 Anisotropic factor:    0.000 [-] (Relative), Radius:    1.000 [A], Framework-atom:  no
Pseudo Atom[  48] Name H_AsH3   Oxidation: +0       Element: H    pdb-name: H    Scat. Types:   1   1 Mass=1.008000000  B-factor:1.000   
                 Charge=-0.040000000         Polarization=0.000000000  [A^3] (considered a charged atom and no polarization)  Interactions: yes
                 Anisotropic factor:    0.000 [-] (Relative), Radius:    1.000 [A], Framework-atom:  no
Pseudo Atom[  49] Name B_B2H6   Oxidation: +0       Element: B    pdb-name: B    Scat. Types:   6   4 Mass=10.810000000 B-factor:1.000   
                 Charge=0.000000000          Polarization=0.000000000  [A^3] (considered a chargeless atom and no polarization)  Interactions: yes
                 Anisotropic factor:    0.000 [-] (Relative), Radius:    1.000 [A], Framework-atom:  no
Pseudo Atom[  50] Name H1_B2H6  Oxidation: +0       Element: H    pdb-name: H    Scat. Types:   1   1 Mass=1.008000000  B-factor:1.000   
                 Charge=-0.065000000         Polarization=0.000000000  [A^3] (considered a charged atom and no polarization)  Interactions: yes
                 Anisotropic factor:    0.000 [-] (Relative), Radius:    1.000 [A], Framework-atom:  no
Pseudo Atom[  51] Name H2_B2H6  Oxidation: +0       Element: H    pdb-name: H    Scat. Types:   1   1 Mass=1.008000000  B-factor:1.000   
                 Charge=0.130000000          Polarization=0.000000000  [A^3] (considered a charged atom and no polarization)  Interactions: yes
                 Anisotropic factor:    0.000 [-] (Relative), Radius:    1.000 [A], Framework-atom:  no
Pseudo Atom[  52] Name C_C2H2   Oxidation: +0       Element: C    pdb-name: C    Scat. Types:   7   6 Mass=12.010700000 B-factor:1.000   
                 Charge=-0.277000000         Polarization=0.000000000  [A^3] (considered a charged atom and no polarization)  Interactions: yes
                 Anisotropic factor:    0.000 [-] (Relative), Radius:    1.000 [A], Framework-atom:  no
Pseudo Atom[  53] Name H_C2H2   Oxidation: +0       Element: H    pdb-name: H    Scat. Types:   1   1 Mass=1.008000000  B-factor:1.000   
                 Charge=0.277000000          Polarization=0.000000000  [A^3] (considered a charged atom and no polarization)  Interactions: yes
                 Anisotropic factor:    0.000 [-] (Relative), Radius:    1.000 [A], Framework-atom:  no
Pseudo Atom[  54] Name P_PH3    Oxidation: +0       Element: P    pdb-name: P    Scat. Types:  16  15 Mass=30.970000000 B-factor:1.000   
                 Charge=-0.210000000         Polarization=0.000000000  [A^3] (considered a charged atom and no polarization)  Interactions: yes
                 Anisotropic factor:    0.000 [-] (Relative), Radius:    1.000 [A], Framework-atom:  no
Pseudo Atom[  55] Name H_PH3    Oxidation: +0       Element: H    pdb-name: H    Scat. Types:   1   1 Mass=1.008000000  B-factor:1.000   
                 Charge=0.070000000          Polarization=0.000000000  [A^3] (considered a charged atom and no polarization)  Interactions: yes
                 Anisotropic factor:    0.000 [-] (Relative), Radius:    1.000 [A], Framework-atom:  no
Pseudo Atom[  56] Name Sb_SbH3  Oxidation: +0       Element: Sb   pdb-name: Sb   Scat. Types:  52  51 Mass=121.760000000 B-factor:1.000   
                 Charge=0.483000000          Polarization=0.000000000  [A^3] (considered a charged atom and no polarization)  Interactions: yes
                 Anisotropic factor:    0.000 [-] (Relative), Radius:    1.000 [A], Framework-atom:  no
Pseudo Atom[  57] Name H_SbH3   Oxidation: +0       Element: H    pdb-name: H    Scat. Types:   1   1 Mass=1.008000000  B-factor:1.000   
                 Charge=-0.161000000         Polarization=0.000000000  [A^3] (considered a charged atom and no polarization)  Interactions: yes
                 Anisotropic factor:    0.000 [-] (Relative), Radius:    1.000 [A], Framework-atom:  no
Pseudo Atom[  58] Name C_C3H6O  Oxidation: +0       Element: C    pdb-name: C    Scat. Types:   7   6 Mass=12.010700000 B-factor:1.000   
                 Charge=0.662000000          Polarization=0.000000000  [A^3] (considered a charged atom and no polarization)  Interactions: yes
                 Anisotropic factor:    0.000 [-] (Relative), Radius:    1.000 [A], Framework-atom:  no
Pseudo Atom[  59] Name CH3_C3H6O Oxidation: +0       Element: C    pdb-name: C    Scat. Types:   7   6 Mass=15.035000000 B-factor:1.000   
                 Charge=-0.049000000         Polarization=0.000000000  [A^3] (considered a charged atom and no polarization)  Interactions: yes
                 Anisotropic factor:    0.000 [-] (Relative), Radius:    1.000 [A], Framework-atom:  no
Pseudo Atom[  60] Name O_C3H6   Oxidation: +0       Element: O    pdb-name: O    Scat. Types:   9   8 Mass=15.999400000 B-factor:1.000   
                 Charge=-0.564000000         Polarization=0.000000000  [A^3] (considered a charged atom and no polarization)  Interactions: yes
                 Anisotropic factor:    0.000 [-] (Relative), Radius:    1.000 [A], Framework-atom:  no
Pseudo Atom[  61] Name Ar       Oxidation: +0       Element: Ar   pdb-name: Ar   Scat. Types:  19  18 Mass=39.948000000 B-factor:1.000   
                 Charge=0.000000000          Polarization=0.000000000  [A^3] (considered a chargeless atom and no polarization)  Interactions: yes
                 Anisotropic factor:    0.000 [-] (Relative), Radius:    0.700 [A], Framework-atom:  no
Pseudo Atom[  62] Name B_BF3    Oxidation: +0       Element: B    pdb-name: B    Scat. Types:   6   4 Mass=10.810000000 B-factor:1.000   
                 Charge=0.756000000          Polarization=0.000000000  [A^3] (considered a charged atom and no polarization)  Interactions: yes
                 Anisotropic factor:    0.000 [-] (Relative), Radius:    1.000 [A], Framework-atom:  no
Pseudo Atom[  63] Name F_BF3    Oxidation: +0       Element: F    pdb-name: F    Scat. Types:  10   9 Mass=19.000000000 B-factor:1.000   
                 Charge=-0.252000000         Polarization=0.000000000  [A^3] (considered a charged atom and no polarization)  Interactions: yes
                 Anisotropic factor:    0.000 [-] (Relative), Radius:    1.000 [A], Framework-atom:  no
Pseudo Atom[  64] Name Si_SiF4  Oxidation: +0       Element: Si   pdb-name: Si   Scat. Types:  15  14 Mass=28.090000000 B-factor:1.000   
                 Charge=1.152000000          Polarization=0.000000000  [A^3] (considered a charged atom and no polarization)  Interactions: yes
                 Anisotropic factor:    0.000 [-] (Relative), Radius:    1.000 [A], Framework-atom:  no
Pseudo Atom[  65] Name F_SiF4   Oxidation: +0       Element: F    pdb-name: F    Scat. Types:  10   9 Mass=19.000000000 B-factor:1.000   
                 Charge=-0.288000000         Polarization=0.000000000  [A^3] (considered a charged atom and no polarization)  Interactions: yes
                 Anisotropic factor:    0.000 [-] (Relative), Radius:    1.000 [A], Framework-atom:  no
Pseudo Atom[  66] Name Ge_GeF4  Oxidation: +0       Element: Ge   pdb-name: Ge   Scat. Types:  33  32 Mass=72.630000000 B-factor:1.000   
                 Charge=0.956000000          Polarization=0.000000000  [A^3] (considered a charged atom and no polarization)  Interactions: yes
                 Anisotropic factor:    0.000 [-] (Relative), Radius:    1.000 [A], Framework-atom:  no
Pseudo Atom[  67] Name F_GeF4   Oxidation: +0       Element: F    pdb-name: F    Scat. Types:  10   9 Mass=19.000000000 B-factor:1.000   
                 Charge=-0.239000000         Polarization=0.000000000  [A^3] (considered a charged atom and no polarization)  Interactions: yes
                 Anisotropic factor:    0.000 [-] (Relative), Radius:    1.000 [A], Framework-atom:  no
Pseudo Atom[  68] Name C_C=O    Oxidation: +0       Element: C    pdb-name: C    Scat. Types:   7   6 Mass=12.011000000 B-factor:1.000   
                 Charge=0.107000000          Polarization=0.000000000  [A^3] (considered a charged atom and no polarization)  Interactions: yes
                 Anisotropic factor:    0.000 [-] (Relative), Radius:    0.760 [A], Framework-atom:  no
Pseudo Atom[  69] Name O_C=O    Oxidation: +0       Element: O    pdb-name: O    Scat. Types:   9   8 Mass=15.999000000 B-factor:1.000   
                 Charge=-0.305000000         Polarization=0.000000000  [A^3] (considered a charged atom and no polarization)  Interactions: yes
                 Anisotropic factor:    0.000 [-] (Relative), Radius:    0.660 [A], Framework-atom:  no
Pseudo Atom[  70] Name H_C=O    Oxidation: +0       Element: H    pdb-name: H    Scat. Types:   1   1 Mass=1.008000000  B-factor:1.000   
                 Charge=0.099000000          Polarization=0.000000000  [A^3] (considered a charged atom and no polarization)  Interactions: yes
                 Anisotropic factor:    0.000 [-] (Relative), Radius:    0.310 [A], Framework-atom:  no
Pseudo Atom[  71] Name S_S      Oxidation: +0       Element: S    pdb-name: S    Scat. Types:  17  14 Mass=32.065000000 B-factor:1.000   
                 Charge=0.400000000          Polarization=0.000000000  [A^3] (considered a charged atom and no polarization)  Interactions: yes
                 Anisotropic factor:    0.000 [-] (Relative), Radius:    1.050 [A], Framework-atom:  no
Pseudo Atom[  72] Name H_S      Oxidation: +0       Element: H    pdb-name: H    Scat. Types:   1   1 Mass=1.008000000  B-factor:1.000   
                 Charge=0.250000000          Polarization=0.000000000  [A^3] (considered a charged atom and no polarization)  Interactions: yes
                 Anisotropic factor:    0.000 [-] (Relative), Radius:    0.310 [A], Framework-atom:  no
Pseudo Atom[  73] Name M_S      Oxidation: +0       Element: N    pdb-name: N    Scat. Types:   8   7 Mass=0.000000000  B-factor:1.000   
                 Charge=-0.900000000         Polarization=0.000000000  [A^3] (considered a charged atom and no polarization)  Interactions: yes
                 Anisotropic factor:    0.000 [-] (Relative), Radius:    1.000 [A], Framework-atom:  no
Pseudo Atom[  74] Name Al1      Oxidation:          Element: Al   pdb-name: Al   Scat. Types:  14  13 Mass=26.981538630 B-factor:0.000   
                 Charge=0.000000000  (-na-)  Polarization=6.800000000  [A^3] (considered a chargeless atom and no polarization)  Interactions: yes
                 Anisotropic factor:    0.000 [-] (Absolute), Radius:    1.240 [A], Framework-atom: yes (charge definition not found)
Pseudo Atom[  75] Name Al2      Oxidation:          Element: Al   pdb-name: Al   Scat. Types:  14  13 Mass=26.981538630 B-factor:0.000   
                 Charge=0.000000000  (-na-)  Polarization=6.800000000  [A^3] (considered a chargeless atom and no polarization)  Interactions: yes
                 Anisotropic factor:    0.000 [-] (Absolute), Radius:    1.240 [A], Framework-atom: yes (charge definition not found)
Pseudo Atom[  76] Name C3       Oxidation:          Element: C    pdb-name: C    Scat. Types:   7   6 Mass=12.010735897 B-factor:0.000   
                 Charge=0.000000000  (-na-)  Polarization=1.760000000  [A^3] (considered a chargeless atom and no polarization)  Interactions: yes
                 Anisotropic factor:    0.000 [-] (Absolute), Radius:    0.750 [A], Framework-atom: yes (charge definition not found)
Pseudo Atom[  77] Name C4       Oxidation:          Element: C    pdb-name: C    Scat. Types:   7   6 Mass=12.010735897 B-factor:0.000   
                 Charge=0.000000000  (-na-)  Polarization=1.760000000  [A^3] (considered a chargeless atom and no polarization)  Interactions: yes
                 Anisotropic factor:    0.000 [-] (Absolute), Radius:    0.750 [A], Framework-atom: yes (charge definition not found)
Pseudo Atom[  78] Name C5       Oxidation:          Element: C    pdb-name: C    Scat. Types:   7   6 Mass=12.010735897 B-factor:0.000   
                 Charge=0.000000000  (-na-)  Polarization=1.760000000  [A^3] (considered a chargeless atom and no polarization)  Interactions: yes
                 Anisotropic factor:    0.000 [-] (Absolute), Radius:    0.750 [A], Framework-atom: yes (charge definition not found)
Pseudo Atom[  79] Name C6       Oxidation:          Element: C    pdb-name: C    Scat. Types:   7   6 Mass=12.010735897 B-factor:0.000   
                 Charge=0.000000000  (-na-)  Polarization=1.760000000  [A^3] (considered a chargeless atom and no polarization)  Interactions: yes
                 Anisotropic factor:    0.000 [-] (Absolute), Radius:    0.750 [A], Framework-atom: yes (charge definition not found)
Pseudo Atom[  80] Name C7       Oxidation:          Element: C    pdb-name: C    Scat. Types:   7   6 Mass=12.010735897 B-factor:0.000   
                 Charge=0.000000000  (-na-)  Polarization=1.760000000  [A^3] (considered a chargeless atom and no polarization)  Interactions: yes
                 Anisotropic factor:    0.000 [-] (Absolute), Radius:    0.750 [A], Framework-atom: yes (charge definition not found)
Pseudo Atom[  81] Name C8       Oxidation:          Element: C    pdb-name: C    Scat. Types:   7   6 Mass=12.010735897 B-factor:0.000   
                 Charge=0.000000000  (-na-)  Polarization=1.760000000  [A^3] (considered a chargeless atom and no polarization)  Interactions: yes
                 Anisotropic factor:    0.000 [-] (Absolute), Radius:    0.750 [A], Framework-atom: yes (charge definition not found)
Pseudo Atom[  82] Name C9       Oxidation:          Element: C    pdb-name: C    Scat. Types:   7   6 Mass=12.010735897 B-factor:0.000   
                 Charge=0.000000000  (-na-)  Polarization=1.760000000  [A^3] (considered a chargeless atom and no polarization)  Interactions: yes
                 Anisotropic factor:    0.000 [-] (Absolute), Radius:    0.750 [A], Framework-atom: yes (charge definition not found)
Pseudo Atom[  83] Name C10      Oxidation:          Element: C    pdb-name: C    Scat. Types:   7   6 Mass=12.010735897 B-factor:0.000   
                 Charge=0.000000000  (-na-)  Polarization=1.760000000  [A^3] (considered a chargeless atom and no polarization)  Interactions: yes
                 Anisotropic factor:    0.000 [-] (Absolute), Radius:    0.750 [A], Framework-atom: yes (charge definition not found)
Pseudo Atom[  84] Name C11      Oxidation:          Element: C    pdb-name: C    Scat. Types:   7   6 Mass=12.010735897 B-factor:0.000   
                 Charge=0.000000000  (-na-)  Polarization=1.760000000  [A^3] (considered a chargeless atom and no polarization)  Interactions: yes
                 Anisotropic factor:    0.000 [-] (Absolute), Radius:    0.750 [A], Framework-atom: yes (charge definition not found)
Pseudo Atom[  85] Name C12      Oxidation:          Element: C    pdb-name: C    Scat. Types:   7   6 Mass=12.010735897 B-factor:0.000   
                 Charge=0.000000000  (-na-)  Polarization=1.760000000  [A^3] (considered a chargeless atom and no polarization)  Interactions: yes
                 Anisotropic factor:    0.000 [-] (Absolute), Radius:    0.750 [A], Framework-atom: yes (charge definition not found)
Pseudo Atom[  86] Name C13      Oxidation:          Element: C    pdb-name: C    Scat. Types:   7   6 Mass=12.010735897 B-factor:0.000   
                 Charge=0.000000000  (-na-)  Polarization=1.760000000  [A^3] (considered a chargeless atom and no polarization)  Interactions: yes
                 Anisotropic factor:    0.000 [-] (Absolute), Radius:    0.750 [A], Framework-atom: yes (charge definition not found)
Pseudo Atom[  87] Name C14      Oxidation:          Element: C    pdb-name: C    Scat. Types:   7   6 Mass=12.010735897 B-factor:0.000   
                 Charge=0.000000000  (-na-)  Polarization=1.760000000  [A^3] (considered a chargeless atom and no polarization)  Interactions: yes
                 Anisotropic factor:    0.000 [-] (Absolute), Radius:    0.750 [A], Framework-atom: yes (charge definition not found)
Pseudo Atom[  88] Name C15      Oxidation:          Element: C    pdb-name: C    Scat. Types:   7   6 Mass=12.010735897 B-factor:0.000   
                 Charge=0.000000000  (-na-)  Polarization=1.760000000  [A^3] (considered a chargeless atom and no polarization)  Interactions: yes
                 Anisotropic factor:    0.000 [-] (Absolute), Radius:    0.750 [A], Framework-atom: yes (charge definition not found)
Pseudo Atom[  89] Name C16      Oxidation:          Element: C    pdb-name: C    Scat. Types:   7   6 Mass=12.010735897 B-factor:0.000   
                 Charge=0.000000000  (-na-)  Polarization=1.760000000  [A^3] (considered a chargeless atom and no polarization)  Interactions: yes
                 Anisotropic factor:    0.000 [-] (Absolute), Radius:    0.750 [A], Framework-atom: yes (charge definition not found)
Pseudo Atom[  90] Name C17      Oxidation:          Element: C    pdb-name: C    Scat. Types:   7   6 Mass=12.010735897 B-factor:0.000   
                 Charge=0.000000000  (-na-)  Polarization=1.760000000  [A^3] (considered a chargeless atom and no polarization)  Interactions: yes
                 Anisotropic factor:    0.000 [-] (Absolute), Radius:    0.750 [A], Framework-atom: yes (charge definition not found)
Pseudo Atom[  91] Name C18      Oxidation:          Element: C    pdb-name: C    Scat. Types:   7   6 Mass=12.010735897 B-factor:0.000   
                 Charge=0.000000000  (-na-)  Polarization=1.760000000  [A^3] (considered a chargeless atom and no polarization)  Interactions: yes
                 Anisotropic factor:    0.000 [-] (Absolute), Radius:    0.750 [A], Framework-atom: yes (charge definition not found)
Pseudo Atom[  92] Name O19      Oxidation:          Element: O    pdb-name: O    Scat. Types:   9   8 Mass=15.999404927 B-factor:0.000   
                 Charge=0.000000000  (-na-)  Polarization=0.802000000  [A^3] (considered a chargeless atom and no polarization)  Interactions: yes
                 Anisotropic factor:    0.000 [-] (Absolute), Radius:    0.640 [A], Framework-atom: yes (charge definition not found)
Pseudo Atom[  93] Name O20      Oxidation:          Element: O    pdb-name: O    Scat. Types:   9   8 Mass=15.999404927 B-factor:0.000   
                 Charge=0.000000000  (-na-)  Polarization=0.802000000  [A^3] (considered a chargeless atom and no polarization)  Interactions: yes
                 Anisotropic factor:    0.000 [-] (Absolute), Radius:    0.640 [A], Framework-atom: yes (charge definition not found)
Pseudo Atom[  94] Name O21      Oxidation:          Element: O    pdb-name: O    Scat. Types:   9   8 Mass=15.999404927 B-factor:0.000   
                 Charge=0.000000000  (-na-)  Polarization=0.802000000  [A^3] (considered a chargeless atom and no polarization)  Interactions: yes
                 Anisotropic factor:    0.000 [-] (Absolute), Radius:    0.640 [A], Framework-atom: yes (charge definition not found)
Pseudo Atom[  95] Name O22      Oxidation:          Element: O    pdb-name: O    Scat. Types:   9   8 Mass=15.999404927 B-factor:0.000   
                 Charge=0.000000000  (-na-)  Polarization=0.802000000  [A^3] (considered a chargeless atom and no polarization)  Interactions: yes
                 Anisotropic factor:    0.000 [-] (Absolute), Radius:    0.640 [A], Framework-atom: yes (charge definition not found)
Pseudo Atom[  96] Name O23      Oxidation:          Element: O    pdb-name: O    Scat. Types:   9   8 Mass=15.999404927 B-factor:0.000   
                 Charge=0.000000000  (-na-)  Polarization=0.802000000  [A^3] (considered a chargeless atom and no polarization)  Interactions: yes
                 Anisotropic factor:    0.000 [-] (Absolute), Radius:    0.640 [A], Framework-atom: yes (charge definition not found)
Pseudo Atom[  97] Name O24      Oxidation:          Element: O    pdb-name: O    Scat. Types:   9   8 Mass=15.999404927 B-factor:0.000   
                 Charge=0.000000000  (-na-)  Polarization=0.802000000  [A^3] (considered a chargeless atom and no polarization)  Interactions: yes
                 Anisotropic factor:    0.000 [-] (Absolute), Radius:    0.640 [A], Framework-atom: yes (charge definition not found)
Pseudo Atom[  98] Name O25      Oxidation:          Element: O    pdb-name: O    Scat. Types:   9   8 Mass=15.999404927 B-factor:0.000   
                 Charge=0.000000000  (-na-)  Polarization=0.802000000  [A^3] (considered a chargeless atom and no polarization)  Interactions: yes
                 Anisotropic factor:    0.000 [-] (Absolute), Radius:    0.640 [A], Framework-atom: yes (charge definition not found)
Pseudo Atom[  99] Name O26      Oxidation:          Element: O    pdb-name: O    Scat. Types:   9   8 Mass=15.999404927 B-factor:0.000   
                 Charge=0.000000000  (-na-)  Polarization=0.802000000  [A^3] (considered a chargeless atom and no polarization)  Interactions: yes
                 Anisotropic factor:    0.000 [-] (Absolute), Radius:    0.640 [A], Framework-atom: yes (charge definition not found)
Pseudo Atom[ 100] Name O27      Oxidation:          Element: O    pdb-name: O    Scat. Types:   9   8 Mass=15.999404927 B-factor:0.000   
                 Charge=0.000000000  (-na-)  Polarization=0.802000000  [A^3] (considered a chargeless atom and no polarization)  Interactions: yes
                 Anisotropic factor:    0.000 [-] (Absolute), Radius:    0.640 [A], Framework-atom: yes (charge definition not found)
Pseudo Atom[ 101] Name O28      Oxidation:          Element: O    pdb-name: O    Scat. Types:   9   8 Mass=15.999404927 B-factor:0.000   
                 Charge=0.000000000  (-na-)  Polarization=0.802000000  [A^3] (considered a chargeless atom and no polarization)  Interactions: yes
                 Anisotropic factor:    0.000 [-] (Absolute), Radius:    0.640 [A], Framework-atom: yes (charge definition not found)
Pseudo Atom[ 102] Name H29      Oxidation:          Element: H    pdb-name: H    Scat. Types:   1   1 Mass=1.007940754  B-factor:0.000   
                 Charge=0.000000000  (-na-)  Polarization=0.666793000  [A^3] (considered a chargeless atom and no polarization)  Interactions: yes
                 Anisotropic factor:    0.000 [-] (Absolute), Radius:    0.320 [A], Framework-atom: yes (charge definition not found)
Pseudo Atom[ 103] Name H30      Oxidation:          Element: H    pdb-name: H    Scat. Types:   1   1 Mass=1.007940754  B-factor:0.000   
                 Charge=0.000000000  (-na-)  Polarization=0.666793000  [A^3] (considered a chargeless atom and no polarization)  Interactions: yes
                 Anisotropic factor:    0.000 [-] (Absolute), Radius:    0.320 [A], Framework-atom: yes (charge definition not found)
Pseudo Atom[ 104] Name H31      Oxidation:          Element: H    pdb-name: H    Scat. Types:   1   1 Mass=1.007940754  B-factor:0.000   
                 Charge=0.000000000  (-na-)  Polarization=0.666793000  [A^3] (considered a chargeless atom and no polarization)  Interactions: yes
                 Anisotropic factor:    0.000 [-] (Absolute), Radius:    0.320 [A], Framework-atom: yes (charge definition not found)
Pseudo Atom[ 105] Name H32      Oxidation:          Element: H    pdb-name: H    Scat. Types:   1   1 Mass=1.007940754  B-factor:0.000   
                 Charge=0.000000000  (-na-)  Polarization=0.666793000  [A^3] (considered a chargeless atom and no polarization)  Interactions: yes
                 Anisotropic factor:    0.000 [-] (Absolute), Radius:    0.320 [A], Framework-atom: yes (charge definition not found)
Pseudo Atom[ 106] Name H33      Oxidation:          Element: H    pdb-name: H    Scat. Types:   1   1 Mass=1.007940754  B-factor:0.000   
                 Charge=0.000000000  (-na-)  Polarization=0.666793000  [A^3] (considered a chargeless atom and no polarization)  Interactions: yes
                 Anisotropic factor:    0.000 [-] (Absolute), Radius:    0.320 [A], Framework-atom: yes (charge definition not found)
Pseudo Atom[ 107] Name H34      Oxidation:          Element: H    pdb-name: H    Scat. Types:   1   1 Mass=1.007940754  B-factor:0.000   
                 Charge=0.000000000  (-na-)  Polarization=0.666793000  [A^3] (considered a chargeless atom and no polarization)  Interactions: yes
                 Anisotropic factor:    0.000 [-] (Absolute), Radius:    0.320 [A], Framework-atom: yes (charge definition not found)
Pseudo Atom[ 108] Name H35      Oxidation:          Element: H    pdb-name: H    Scat. Types:   1   1 Mass=1.007940754  B-factor:0.000   
                 Charge=0.000000000  (-na-)  Polarization=0.666793000  [A^3] (considered a chargeless atom and no polarization)  Interactions: yes
                 Anisotropic factor:    0.000 [-] (Absolute), Radius:    0.320 [A], Framework-atom: yes (charge definition not found)
Pseudo Atom[ 109] Name H36      Oxidation:          Element: H    pdb-name: H    Scat. Types:   1   1 Mass=1.007940754  B-factor:0.000   
                 Charge=0.000000000  (-na-)  Polarization=0.666793000  [A^3] (considered a chargeless atom and no polarization)  Interactions: yes
                 Anisotropic factor:    0.000 [-] (Absolute), Radius:    0.320 [A], Framework-atom: yes (charge definition not found)
Pseudo Atom[ 110] Name H37      Oxidation:          Element: H    pdb-name: H    Scat. Types:   1   1 Mass=1.007940754  B-factor:0.000   
                 Charge=0.000000000  (-na-)  Polarization=0.666793000  [A^3] (considered a chargeless atom and no polarization)  Interactions: yes
                 Anisotropic factor:    0.000 [-] (Absolute), Radius:    0.320 [A], Framework-atom: yes (charge definition not found)
Pseudo Atom[ 111] Name H38      Oxidation:          Element: H    pdb-name: H    Scat. Types:   1   1 Mass=1.007940754  B-factor:0.000   
                 Charge=0.000000000  (-na-)  Polarization=0.666793000  [A^3] (considered a chargeless atom and no polarization)  Interactions: yes
                 Anisotropic factor:    0.000 [-] (Absolute), Radius:    0.320 [A], Framework-atom: yes (charge definition not found)


Forcefield: CrystalGenerator
===========================================================================
Minimal distance: 1
CutOff VDW : 12.800000 (163.840000)
CutOff VDW switching on: 11.520000 (132.710400)
CutOff charge-charge : 12.000000 (144.000000)
CutOff charge-charge switching on: 7.800000 (60.840000)
CutOff charge-bonddipole : 12.000000 (144.000000)
CutOff charge-bondipole switching on: 8.400000 (70.560000)
CutOff bonddipole-bonddipole : 12.000000 (144.000000)
CutOff bonddipole-bondipole switching on: 9.000000 (81.000000)
Polarization is neglected
All potentials are unshifted !!!!!!

General mixing rule: Lorentz-Berthelot mixing rules are used FIRST for cross terms
0 cross terms are overwritten using the individual mixing rules from the file 'force_field_mixing_rules.def'
and then 0 terms are overwritten using the specific interactions from the file 'force_field.def'

The force field and all the interactions:
 Mof_Rb -  Mof_Rb [LENNARD_JONES] p_0/k_B:  20.12800 [K], p_1: 3.66600 [A], shift/k_B:   0.00000000 [K], tailcorrection: no
 Mof_Rb -  Mof_Sr [LENNARD_JONES] p_0/k_B:  48.78705 [K], p_1: 3.45500 [A], shift/k_B:   0.00000000 [K], tailcorrection: no
 Mof_Rb -  Mof_Cs [LENNARD_JONES] p_0/k_B:  21.34897 [K], p_1: 3.84550 [A], shift/k_B:   0.00000000 [K], tailcorrection: no
 Mof_Rb -  Mof_Zn [LENNARD_JONES] p_0/k_B:  35.43991 [K], p_1: 3.06400 [A], shift/k_B:   0.00000000 [K], tailcorrection: no
 Mof_Rb -  Mof_Zr [LENNARD_JONES] p_0/k_B:  26.43566 [K], p_1: 3.22450 [A], shift/k_B:   0.00000000 [K], tailcorrection: no
 Mof_Rb -  Mof_Cu [LENNARD_JONES] p_0/k_B:   7.11632 [K], p_1: 3.39000 [A], shift/k_B:   0.00000000 [K], tailcorrection: no
 Mof_Rb -  Mof_Cr [LENNARD_JONES] p_0/k_B:  12.32583 [K], p_1: 3.18000 [A], shift/k_B:   0.00000000 [K], tailcorrection: no
 Mof_Rb -  Mof_Ni [LENNARD_JONES] p_0/k_B:  12.32583 [K], p_1: 3.09550 [A], shift/k_B:   0.00000000 [K], tailcorrection: no
 Mof_Rb -   Mof_V [LENNARD_JONES] p_0/k_B:  12.72912 [K], p_1: 3.23300 [A], shift/k_B:   0.00000000 [K], tailcorrection: no
 Mof_Rb -   Mof_N [LENNARD_JONES] p_0/k_B:  26.43566 [K], p_1: 3.46300 [A], shift/k_B:   0.00000000 [K], tailcorrection: no
 Mof_Rb -   Mof_O [LENNARD_JONES] p_0/k_B:  24.65085 [K], p_1: 3.39300 [A], shift/k_B:   0.00000000 [K], tailcorrection: no
 Mof_Rb -   Mof_C [LENNARD_JONES] p_0/k_B:  32.60924 [K], p_1: 3.54800 [A], shift/k_B:   0.00000000 [K], tailcorrection: no
 Mof_Rb -   Mof_H [LENNARD_JONES] p_0/k_B:  21.11004 [K], p_1: 3.11800 [A], shift/k_B:   0.00000000 [K], tailcorrection: no
 Mof_Rb -   Mof_F [LENNARD_JONES] p_0/k_B:  22.50379 [K], p_1: 3.33150 [A], shift/k_B:   0.00000000 [K], tailcorrection: no
 Mof_Rb -  Mof_Cl [LENNARD_JONES] p_0/k_B:  47.95020 [K], p_1: 3.59150 [A], shift/k_B:   0.00000000 [K], tailcorrection: no
 Mof_Rb -  Mof_Br [LENNARD_JONES] p_0/k_B:  50.41990 [K], p_1: 3.69800 [A], shift/k_B:   0.00000000 [K], tailcorrection: no
 Mof_Rb -   Mof_B [LENNARD_JONES] p_0/k_B:  24.65166 [K], p_1: 3.65200 [A], shift/k_B:   0.00000000 [K], tailcorrection: no
 Mof_Rb -   Mof_W [LENNARD_JONES] p_0/k_B:  26.04986 [K], p_1: 3.20050 [A], shift/k_B:   0.00000000 [K], tailcorrection: no
 Mof_Rb -   Mof_P [LENNARD_JONES] p_0/k_B:  55.58026 [K], p_1: 3.68050 [A], shift/k_B:   0.00000000 [K], tailcorrection: no
 Mof_Rb -  Mof_Fe [LENNARD_JONES] p_0/k_B:  11.47508 [K], p_1: 3.13050 [A], shift/k_B:   0.00000000 [K], tailcorrection: no
 Mof_Rb -  Mof_Co [LENNARD_JONES] p_0/k_B:  11.90805 [K], p_1: 3.11250 [A], shift/k_B:   0.00000000 [K], tailcorrection: no
 Mof_Rb -  Mof_Mg [LENNARD_JONES] p_0/k_B:  33.53055 [K], p_1: 3.17870 [A], shift/k_B:   0.00000000 [K], tailcorrection: no
 Mof_Rb -   M_nh3 [LENNARD_JONES] p_0/k_B:  53.08408 [K], p_1: 3.53300 [A], shift/k_B:   0.00000000 [K], tailcorrection: no
 Mof_Rb -   N_nh3 [LENNARD_JONES] p_0/k_B:   0.00000 [K], p_1: 1.83300 [A], shift/k_B:   0.00000000 [K], tailcorrection: no
 Mof_Rb -   H_nh3 [LENNARD_JONES] p_0/k_B:   0.00000 [K], p_1: 1.83300 [A], shift/k_B:   0.00000000 [K], tailcorrection: no
 Mof_Rb -      Li [LENNARD_JONES] p_0/k_B:  15.91258 [K], p_1: 2.92500 [A], shift/k_B:   0.00000000 [K], tailcorrection: no
 Mof_Rb -      Na [LENNARD_JONES] p_0/k_B:  17.43136 [K], p_1: 3.16200 [A], shift/k_B:   0.00000000 [K], tailcorrection: no
 Mof_Rb -      Cl [LENNARD_JONES] p_0/k_B:  53.56760 [K], p_1: 3.59266 [A], shift/k_B:   0.00000000 [K], tailcorrection: no
 Mof_Rb -      He [LENNARD_JONES] p_0/k_B:  14.81200 [K], p_1: 3.15300 [A], shift/k_B:   0.00000000 [K], tailcorrection: no
 Mof_Rb -      Xe [LENNARD_JONES] p_0/k_B:  66.69549 [K], p_1: 3.88300 [A], shift/k_B:   0.00000000 [K], tailcorrection: no
 Mof_Rb -      Kr [LENNARD_JONES] p_0/k_B:  57.87313 [K], p_1: 3.65100 [A], shift/k_B:   0.00000000 [K], tailcorrection: no
 Mof_Rb -    O_o2 [LENNARD_JONES] p_0/k_B:  31.40497 [K], p_1: 3.34300 [A], shift/k_B:   0.00000000 [K], tailcorrection: no
 Mof_Rb -   O_com [LENNARD_JONES] p_0/k_B:   0.00000 [K], p_1: 1.83300 [A], shift/k_B:   0.00000000 [K], tailcorrection: no
 Mof_Rb -    O_OH [LENNARD_JONES] p_0/k_B:  24.65085 [K], p_1: 3.39300 [A], shift/k_B:   0.00000000 [K], tailcorrection: no
 Mof_Rb -    H_OH [LENNARD_JONES] p_0/k_B:  21.11004 [K], p_1: 3.11800 [A], shift/k_B:   0.00000000 [K], tailcorrection: no
 Mof_Rb -  C_benz [LENNARD_JONES] p_0/k_B:  24.85819 [K], p_1: 3.63300 [A], shift/k_B:   0.00000000 [K], tailcorrection: no
 Mof_Rb -  H_benz [LENNARD_JONES] p_0/k_B:  22.18399 [K], p_1: 3.01300 [A], shift/k_B:   0.00000000 [K], tailcorrection: no
 Mof_Rb - CH4_sp3 [LENNARD_JONES] p_0/k_B:  54.57970 [K], p_1: 3.69800 [A], shift/k_B:   0.00000000 [K], tailcorrection: no
 Mof_Rb -   C_co2 [LENNARD_JONES] p_0/k_B:  23.31214 [K], p_1: 3.23300 [A], shift/k_B:   0.00000000 [K], tailcorrection: no
 Mof_Rb -   O_co2 [LENNARD_JONES] p_0/k_B:  39.87621 [K], p_1: 3.35800 [A], shift/k_B:   0.00000000 [K], tailcorrection: no
 Mof_Rb -    N_n2 [LENNARD_JONES] p_0/k_B:  26.91854 [K], p_1: 3.48800 [A], shift/k_B:   0.00000000 [K], tailcorrection: no
 Mof_Rb -   N_com [LENNARD_JONES] p_0/k_B:   0.00000 [K], p_1: 1.83300 [A], shift/k_B:   0.00000000 [K], tailcorrection: no
 Mof_Rb -    H_h2 [LENNARD_JONES] p_0/k_B:   0.00000 [K], p_1: 1.83300 [A], shift/k_B:   0.00000000 [K], tailcorrection: no
 Mof_Rb -   H_com [LENNARD_JONES] p_0/k_B:  27.17899 [K], p_1: 3.31200 [A], shift/k_B:   0.00000000 [K], tailcorrection: no
 Mof_Rb -      Ow [LENNARD_JONES] p_0/k_B:  39.25044 [K], p_1: 3.40850 [A], shift/k_B:   0.00000000 [K], tailcorrection: no
 Mof_Rb -      Hw [LENNARD_JONES] p_0/k_B:   0.00000 [K], p_1: 1.83300 [A], shift/k_B:   0.00000000 [K], tailcorrection: no
 Mof_Rb - As_AsH3 [LENNARD_JONES] p_0/k_B:  55.94554 [K], p_1: 3.94800 [A], shift/k_B:   0.00000000 [K], tailcorrection: no
 Mof_Rb -  H_AsH3 [LENNARD_JONES] p_0/k_B:  21.11004 [K], p_1: 3.27800 [A], shift/k_B:   0.00000000 [K], tailcorrection: no
 Mof_Rb -  B_B2H6 [LENNARD_JONES] p_0/k_B:  42.69888 [K], p_1: 3.87300 [A], shift/k_B:   0.00000000 [K], tailcorrection: no
 Mof_Rb - H1_B2H6 [LENNARD_JONES] p_0/k_B:  21.11004 [K], p_1: 3.27800 [A], shift/k_B:   0.00000000 [K], tailcorrection: no
 Mof_Rb - H2_B2H6 [LENNARD_JONES] p_0/k_B:  21.11004 [K], p_1: 3.27800 [A], shift/k_B:   0.00000000 [K], tailcorrection: no
 Mof_Rb -  C_C2H2 [LENNARD_JONES] p_0/k_B:  33.38092 [K], p_1: 3.73300 [A], shift/k_B:   0.00000000 [K], tailcorrection: no
 Mof_Rb -  H_C2H2 [LENNARD_JONES] p_0/k_B:   0.00000 [K], p_1: 1.83300 [A], shift/k_B:   0.00000000 [K], tailcorrection: no
 Mof_Rb -   P_PH3 [LENNARD_JONES] p_0/k_B:  56.92634 [K], p_1: 3.90800 [A], shift/k_B:   0.00000000 [K], tailcorrection: no
 Mof_Rb -   H_PH3 [LENNARD_JONES] p_0/k_B:  21.11004 [K], p_1: 3.27800 [A], shift/k_B:   0.00000000 [K], tailcorrection: no
 Mof_Rb - Sb_SbH3 [LENNARD_JONES] p_0/k_B:  67.43828 [K], p_1: 4.04300 [A], shift/k_B:   0.00000000 [K], tailcorrection: no
 Mof_Rb -  H_SbH3 [LENNARD_JONES] p_0/k_B:  21.11004 [K], p_1: 3.27800 [A], shift/k_B:   0.00000000 [K], tailcorrection: no
 Mof_Rb - C_C3H6O [LENNARD_JONES] p_0/k_B:  23.31214 [K], p_1: 3.74300 [A], shift/k_B:   0.00000000 [K], tailcorrection: no
 Mof_Rb - CH3_C3H6O [LENNARD_JONES] p_0/k_B:  44.41333 [K], p_1: 3.70800 [A], shift/k_B:   0.00000000 [K], tailcorrection: no
 Mof_Rb -  O_C3H6 [LENNARD_JONES] p_0/k_B:  31.13400 [K], p_1: 3.34957 [A], shift/k_B:   0.00000000 [K], tailcorrection: no
 Mof_Rb -      Ar [LENNARD_JONES] p_0/k_B:  49.10534 [K], p_1: 3.50300 [A], shift/k_B:   0.00000000 [K], tailcorrection: no
 Mof_Rb -   B_BF3 [LENNARD_JONES] p_0/k_B:  42.69888 [K], p_1: 3.87300 [A], shift/k_B:   0.00000000 [K], tailcorrection: no
 Mof_Rb -   F_BF3 [LENNARD_JONES] p_0/k_B:  22.50379 [K], p_1: 3.51300 [A], shift/k_B:   0.00000000 [K], tailcorrection: no
 Mof_Rb - Si_SiF4 [LENNARD_JONES] p_0/k_B:  63.81140 [K], p_1: 3.98050 [A], shift/k_B:   0.00000000 [K], tailcorrection: no
 Mof_Rb -  F_SiF4 [LENNARD_JONES] p_0/k_B:  22.50379 [K], p_1: 3.51300 [A], shift/k_B:   0.00000000 [K], tailcorrection: no
 Mof_Rb - Ge_GeF4 [LENNARD_JONES] p_0/k_B:  61.95490 [K], p_1: 3.97300 [A], shift/k_B:   0.00000000 [K], tailcorrection: no
 Mof_Rb -  F_GeF4 [LENNARD_JONES] p_0/k_B:  22.50379 [K], p_1: 3.51300 [A], shift/k_B:   0.00000000 [K], tailcorrection: no
 Mof_Rb -   C_C=O [LENNARD_JONES] p_0/k_B:  34.86445 [K], p_1: 3.48100 [A], shift/k_B:   0.00000000 [K], tailcorrection: no
 Mof_Rb -   O_C=O [LENNARD_JONES] p_0/k_B:  45.00981 [K], p_1: 3.25800 [A], shift/k_B:   0.00000000 [K], tailcorrection: no
 Mof_Rb -   H_C=O [LENNARD_JONES] p_0/k_B:  10.06200 [K], p_1: 3.20500 [A], shift/k_B:   0.00000000 [K], tailcorrection: no
 Mof_Rb -     S_S [LENNARD_JONES] p_0/k_B:  70.93659 [K], p_1: 3.69800 [A], shift/k_B:   0.00000000 [K], tailcorrection: no
 Mof_Rb -     H_S [LENNARD_JONES] p_0/k_B:   0.00000 [K], p_1: 1.83300 [A], shift/k_B:   0.00000000 [K], tailcorrection: no
 Mof_Rb -     M_S [LENNARD_JONES] p_0/k_B:   0.00000 [K], p_1: 1.83300 [A], shift/k_B:   0.00000000 [K], tailcorrection: no
 Mof_Rb -     Al1 [LENNARD_JONES] p_0/k_B:  56.03506 [K], p_1: 3.78852 [A], shift/k_B:   0.00000000 [K], tailcorrection: no
 Mof_Rb -     Al2 [LENNARD_JONES] p_0/k_B:  56.03506 [K], p_1: 3.78852 [A], shift/k_B:   0.00000000 [K], tailcorrection: no
 Mof_Rb -      C3 [LENNARD_JONES] p_0/k_B:  31.03626 [K], p_1: 3.56949 [A], shift/k_B:   0.00000000 [K], tailcorrection: no
 Mof_Rb -      C4 [LENNARD_JONES] p_0/k_B:  31.03626 [K], p_1: 3.56949 [A], shift/k_B:   0.00000000 [K], tailcorrection: no
 Mof_Rb -      C5 [LENNARD_JONES] p_0/k_B:  31.03626 [K], p_1: 3.56949 [A], shift/k_B:   0.00000000 [K], tailcorrection: no
 Mof_Rb -      C6 [LENNARD_JONES] p_0/k_B:  31.03626 [K], p_1: 3.56949 [A], shift/k_B:   0.00000000 [K], tailcorrection: no
 Mof_Rb -      C7 [LENNARD_JONES] p_0/k_B:  31.03626 [K], p_1: 3.56949 [A], shift/k_B:   0.00000000 [K], tailcorrection: no
 Mof_Rb -      C8 [LENNARD_JONES] p_0/k_B:  31.03626 [K], p_1: 3.56949 [A], shift/k_B:   0.00000000 [K], tailcorrection: no
 Mof_Rb -      C9 [LENNARD_JONES] p_0/k_B:  31.03626 [K], p_1: 3.56949 [A], shift/k_B:   0.00000000 [K], tailcorrection: no
 Mof_Rb -     C10 [LENNARD_JONES] p_0/k_B:  31.03626 [K], p_1: 3.56949 [A], shift/k_B:   0.00000000 [K], tailcorrection: no
 Mof_Rb -     C11 [LENNARD_JONES] p_0/k_B:  31.03626 [K], p_1: 3.56949 [A], shift/k_B:   0.00000000 [K], tailcorrection: no
 Mof_Rb -     C12 [LENNARD_JONES] p_0/k_B:  31.03626 [K], p_1: 3.56949 [A], shift/k_B:   0.00000000 [K], tailcorrection: no
 Mof_Rb -     C13 [LENNARD_JONES] p_0/k_B:  31.03626 [K], p_1: 3.56949 [A], shift/k_B:   0.00000000 [K], tailcorrection: no
 Mof_Rb -     C14 [LENNARD_JONES] p_0/k_B:  31.03626 [K], p_1: 3.56949 [A], shift/k_B:   0.00000000 [K], tailcorrection: no
 Mof_Rb -     C15 [LENNARD_JONES] p_0/k_B:  31.03626 [K], p_1: 3.56949 [A], shift/k_B:   0.00000000 [K], tailcorrection: no
 Mof_Rb -     C16 [LENNARD_JONES] p_0/k_B:  31.03626 [K], p_1: 3.56949 [A], shift/k_B:   0.00000000 [K], tailcorrection: no
 Mof_Rb -     C17 [LENNARD_JONES] p_0/k_B:  31.03626 [K], p_1: 3.56949 [A], shift/k_B:   0.00000000 [K], tailcorrection: no
 Mof_Rb -     C18 [LENNARD_JONES] p_0/k_B:  31.03626 [K], p_1: 3.56949 [A], shift/k_B:   0.00000000 [K], tailcorrection: no
 Mof_Rb -     O19 [LENNARD_JONES] p_0/k_B:  31.13400 [K], p_1: 3.34957 [A], shift/k_B:   0.00000000 [K], tailcorrection: no
 Mof_Rb -     O20 [LENNARD_JONES] p_0/k_B:  31.13400 [K], p_1: 3.34957 [A], shift/k_B:   0.00000000 [K], tailcorrection: no
 Mof_Rb -     O21 [LENNARD_JONES] p_0/k_B:  31.13400 [K], p_1: 3.34957 [A], shift/k_B:   0.00000000 [K], tailcorrection: no
 Mof_Rb -     O22 [LENNARD_JONES] p_0/k_B:  31.13400 [K], p_1: 3.34957 [A], shift/k_B:   0.00000000 [K], tailcorrection: no
 Mof_Rb -     O23 [LENNARD_JONES] p_0/k_B:  31.13400 [K], p_1: 3.34957 [A], shift/k_B:   0.00000000 [K], tailcorrection: no
 Mof_Rb -     O24 [LENNARD_JONES] p_0/k_B:  31.13400 [K], p_1: 3.34957 [A], shift/k_B:   0.00000000 [K], tailcorrection: no
 Mof_Rb -     O25 [LENNARD_JONES] p_0/k_B:  31.13400 [K], p_1: 3.34957 [A], shift/k_B:   0.00000000 [K], tailcorrection: no
 Mof_Rb -     O26 [LENNARD_JONES] p_0/k_B:  31.13400 [K], p_1: 3.34957 [A], shift/k_B:   0.00000000 [K], tailcorrection: no
 Mof_Rb -     O27 [LENNARD_JONES] p_0/k_B:  31.13400 [K], p_1: 3.34957 [A], shift/k_B:   0.00000000 [K], tailcorrection: no
 Mof_Rb -     O28 [LENNARD_JONES] p_0/k_B:  31.13400 [K], p_1: 3.34957 [A], shift/k_B:   0.00000000 [K], tailcorrection: no
 Mof_Rb -     H29 [LENNARD_JONES] p_0/k_B:  12.40797 [K], p_1: 3.25621 [A], shift/k_B:   0.00000000 [K], tailcorrection: no
 Mof_Rb -     H30 [LENNARD_JONES] p_0/k_B:  12.40797 [K], p_1: 3.25621 [A], shift/k_B:   0.00000000 [K], tailcorrection: no
 Mof_Rb -     H31 [LENNARD_JONES] p_0/k_B:  12.40797 [K], p_1: 3.25621 [A], shift/k_B:   0.00000000 [K], tailcorrection: no
 Mof_Rb -     H32 [LENNARD_JONES] p_0/k_B:  12.40797 [K], p_1: 3.25621 [A], shift/k_B:   0.00000000 [K], tailcorrection: no
 Mof_Rb -     H33 [LENNARD_JONES] p_0/k_B:  12.40797 [K], p_1: 3.25621 [A], shift/k_B:   0.00000000 [K], tailcorrection: no
 Mof_Rb -     H34 [LENNARD_JONES] p_0/k_B:  12.40797 [K], p_1: 3.25621 [A], shift/k_B:   0.00000000 [K], tailcorrection: no
 Mof_Rb -     H35 [LENNARD_JONES] p_0/k_B:  12.40797 [K], p_1: 3.25621 [A], shift/k_B:   0.00000000 [K], tailcorrection: no
 Mof_Rb -     H36 [LENNARD_JONES] p_0/k_B:  12.40797 [K], p_1: 3.25621 [A], shift/k_B:   0.00000000 [K], tailcorrection: no
 Mof_Rb -     H37 [LENNARD_JONES] p_0/k_B:  12.40797 [K], p_1: 3.25621 [A], shift/k_B:   0.00000000 [K], tailcorrection: no
 Mof_Rb -     H38 [LENNARD_JONES] p_0/k_B:  12.40797 [K], p_1: 3.25621 [A], shift/k_B:   0.00000000 [K], tailcorrection: no
 Mof_Sr -  Mof_Sr [LENNARD_JONES] p_0/k_B: 118.25200 [K], p_1: 3.24400 [A], shift/k_B:   0.00000000 [K], tailcorrection: no
 Mof_Sr -  Mof_Cs [LENNARD_JONES] p_0/k_B:  51.74648 [K], p_1: 3.63450 [A], shift/k_B:   0.00000000 [K], tailcorrection: no
 Mof_Sr -  Mof_Zn [LENNARD_JONES] p_0/k_B:  85.90067 [K], p_1: 2.85300 [A], shift/k_B:   0.00000000 [K], tailcorrection: no
 Mof_Sr -  Mof_Zr [LENNARD_JONES] p_0/k_B:  64.07581 [K], p_1: 3.01350 [A], shift/k_B:   0.00000000 [K], tailcorrection: no
 Mof_Sr -  Mof_Cu [LENNARD_JONES] p_0/k_B:  17.24883 [K], p_1: 3.17900 [A], shift/k_B:   0.00000000 [K], tailcorrection: no
 Mof_Sr -  Mof_Cr [LENNARD_JONES] p_0/k_B:  29.87584 [K], p_1: 2.96900 [A], shift/k_B:   0.00000000 [K], tailcorrection: no
 Mof_Sr -  Mof_Ni [LENNARD_JONES] p_0/k_B:  29.87584 [K], p_1: 2.88450 [A], shift/k_B:   0.00000000 [K], tailcorrection: no
 Mof_Sr -   Mof_V [LENNARD_JONES] p_0/k_B:  30.85334 [K], p_1: 3.02200 [A], shift/k_B:   0.00000000 [K], tailcorrection: no
 Mof_Sr -   Mof_N [LENNARD_JONES] p_0/k_B:  64.07581 [K], p_1: 3.25200 [A], shift/k_B:   0.00000000 [K], tailcorrection: no
 Mof_Sr -   Mof_O [LENNARD_JONES] p_0/k_B:  59.74971 [K], p_1: 3.18200 [A], shift/k_B:   0.00000000 [K], tailcorrection: no
 Mof_Sr -   Mof_C [LENNARD_JONES] p_0/k_B:  79.03957 [K], p_1: 3.33700 [A], shift/k_B:   0.00000000 [K], tailcorrection: no
 Mof_Sr -   Mof_H [LENNARD_JONES] p_0/k_B:  51.16737 [K], p_1: 2.90700 [A], shift/k_B:   0.00000000 [K], tailcorrection: no
 Mof_Sr -   Mof_F [LENNARD_JONES] p_0/k_B:  54.54558 [K], p_1: 3.12050 [A], shift/k_B:   0.00000000 [K], tailcorrection: no
 Mof_Sr -  Mof_Cl [LENNARD_JONES] p_0/k_B: 116.22360 [K], p_1: 3.38050 [A], shift/k_B:   0.00000000 [K], tailcorrection: no
 Mof_Sr -  Mof_Br [LENNARD_JONES] p_0/k_B: 122.20977 [K], p_1: 3.48700 [A], shift/k_B:   0.00000000 [K], tailcorrection: no
 Mof_Sr -   Mof_B [LENNARD_JONES] p_0/k_B:  59.75169 [K], p_1: 3.44100 [A], shift/k_B:   0.00000000 [K], tailcorrection: no
 Mof_Sr -   Mof_W [LENNARD_JONES] p_0/k_B:  63.14070 [K], p_1: 2.98950 [A], shift/k_B:   0.00000000 [K], tailcorrection: no
 Mof_Sr -   Mof_P [LENNARD_JONES] p_0/k_B: 134.71765 [K], p_1: 3.46950 [A], shift/k_B:   0.00000000 [K], tailcorrection: no
 Mof_Sr -  Mof_Fe [LENNARD_JONES] p_0/k_B:  27.81375 [K], p_1: 2.91950 [A], shift/k_B:   0.00000000 [K], tailcorrection: no
 Mof_Sr -  Mof_Co [LENNARD_JONES] p_0/k_B:  28.86322 [K], p_1: 2.90150 [A], shift/k_B:   0.00000000 [K], tailcorrection: no
 Mof_Sr -  Mof_Mg [LENNARD_JONES] p_0/k_B:  81.27268 [K], p_1: 2.96771 [A], shift/k_B:   0.00000000 [K], tailcorrection: no
 Mof_Sr -   M_nh3 [LENNARD_JONES] p_0/k_B: 128.66732 [K], p_1: 3.32200 [A], shift/k_B:   0.00000000 [K], tailcorrection: no
 Mof_Sr -   N_nh3 [LENNARD_JONES] p_0/k_B:   0.00000 [K], p_1: 1.62200 [A], shift/k_B:   0.00000000 [K], tailcorrection: no
 Mof_Sr -   H_nh3 [LENNARD_JONES] p_0/k_B:   0.00000 [K], p_1: 1.62200 [A], shift/k_B:   0.00000000 [K], tailcorrection: no
 Mof_Sr -      Li [LENNARD_JONES] p_0/k_B:  38.56955 [K], p_1: 2.71400 [A], shift/k_B:   0.00000000 [K], tailcorrection: no
 Mof_Sr -      Na [LENNARD_JONES] p_0/k_B:  42.25082 [K], p_1: 2.95100 [A], shift/k_B:   0.00000000 [K], tailcorrection: no
 Mof_Sr -      Cl [LENNARD_JONES] p_0/k_B: 129.83929 [K], p_1: 3.38166 [A], shift/k_B:   0.00000000 [K], tailcorrection: no
 Mof_Sr -      He [LENNARD_JONES] p_0/k_B:  35.90191 [K], p_1: 2.94200 [A], shift/k_B:   0.00000000 [K], tailcorrection: no
 Mof_Sr -      Xe [LENNARD_JONES] p_0/k_B: 161.65918 [K], p_1: 3.67200 [A], shift/k_B:   0.00000000 [K], tailcorrection: no
 Mof_Sr -      Kr [LENNARD_JONES] p_0/k_B: 140.27520 [K], p_1: 3.44000 [A], shift/k_B:   0.00000000 [K], tailcorrection: no
 Mof_Sr -    O_o2 [LENNARD_JONES] p_0/k_B:  76.12061 [K], p_1: 3.13200 [A], shift/k_B:   0.00000000 [K], tailcorrection: no
 Mof_Sr -   O_com [LENNARD_JONES] p_0/k_B:   0.00000 [K], p_1: 1.62200 [A], shift/k_B:   0.00000000 [K], tailcorrection: no
 Mof_Sr -    O_OH [LENNARD_JONES] p_0/k_B:  59.74971 [K], p_1: 3.18200 [A], shift/k_B:   0.00000000 [K], tailcorrection: no
 Mof_Sr -    H_OH [LENNARD_JONES] p_0/k_B:  51.16737 [K], p_1: 2.90700 [A], shift/k_B:   0.00000000 [K], tailcorrection: no
 Mof_Sr -  C_benz [LENNARD_JONES] p_0/k_B:  60.25227 [K], p_1: 3.42200 [A], shift/k_B:   0.00000000 [K], tailcorrection: no
 Mof_Sr -  H_benz [LENNARD_JONES] p_0/k_B:  53.77045 [K], p_1: 2.80200 [A], shift/k_B:   0.00000000 [K], tailcorrection: no
 Mof_Sr - CH4_sp3 [LENNARD_JONES] p_0/k_B: 132.29246 [K], p_1: 3.48700 [A], shift/k_B:   0.00000000 [K], tailcorrection: no
 Mof_Sr -   C_co2 [LENNARD_JONES] p_0/k_B:  56.50490 [K], p_1: 3.02200 [A], shift/k_B:   0.00000000 [K], tailcorrection: no
 Mof_Sr -   O_co2 [LENNARD_JONES] p_0/k_B:  96.65355 [K], p_1: 3.14700 [A], shift/k_B:   0.00000000 [K], tailcorrection: no
 Mof_Sr -    N_n2 [LENNARD_JONES] p_0/k_B:  65.24624 [K], p_1: 3.27700 [A], shift/k_B:   0.00000000 [K], tailcorrection: no
 Mof_Sr -   N_com [LENNARD_JONES] p_0/k_B:   0.00000 [K], p_1: 1.62200 [A], shift/k_B:   0.00000000 [K], tailcorrection: no
 Mof_Sr -    H_h2 [LENNARD_JONES] p_0/k_B:   0.00000 [K], p_1: 1.62200 [A], shift/k_B:   0.00000000 [K], tailcorrection: no
 Mof_Sr -   H_com [LENNARD_JONES] p_0/k_B:  65.87753 [K], p_1: 3.10100 [A], shift/k_B:   0.00000000 [K], tailcorrection: no
 Mof_Sr -      Ow [LENNARD_JONES] p_0/k_B:  95.13679 [K], p_1: 3.19750 [A], shift/k_B:   0.00000000 [K], tailcorrection: no
 Mof_Sr -      Hw [LENNARD_JONES] p_0/k_B:   0.00000 [K], p_1: 1.62200 [A], shift/k_B:   0.00000000 [K], tailcorrection: no
 Mof_Sr - As_AsH3 [LENNARD_JONES] p_0/k_B: 135.60305 [K], p_1: 3.73700 [A], shift/k_B:   0.00000000 [K], tailcorrection: no
 Mof_Sr -  H_AsH3 [LENNARD_JONES] p_0/k_B:  51.16737 [K], p_1: 3.06700 [A], shift/k_B:   0.00000000 [K], tailcorrection: no
 Mof_Sr -  B_B2H6 [LENNARD_JONES] p_0/k_B: 103.49525 [K], p_1: 3.66200 [A], shift/k_B:   0.00000000 [K], tailcorrection: no
 Mof_Sr - H1_B2H6 [LENNARD_JONES] p_0/k_B:  51.16737 [K], p_1: 3.06700 [A], shift/k_B:   0.00000000 [K], tailcorrection: no
 Mof_Sr - H2_B2H6 [LENNARD_JONES] p_0/k_B:  51.16737 [K], p_1: 3.06700 [A], shift/k_B:   0.00000000 [K], tailcorrection: no
 Mof_Sr -  C_C2H2 [LENNARD_JONES] p_0/k_B:  80.91002 [K], p_1: 3.52200 [A], shift/k_B:   0.00000000 [K], tailcorrection: no
 Mof_Sr -  H_C2H2 [LENNARD_JONES] p_0/k_B:   0.00000 [K], p_1: 1.62200 [A], shift/k_B:   0.00000000 [K], tailcorrection: no
 Mof_Sr -   P_PH3 [LENNARD_JONES] p_0/k_B: 137.98033 [K], p_1: 3.69700 [A], shift/k_B:   0.00000000 [K], tailcorrection: no
 Mof_Sr -   H_PH3 [LENNARD_JONES] p_0/k_B:  51.16737 [K], p_1: 3.06700 [A], shift/k_B:   0.00000000 [K], tailcorrection: no
 Mof_Sr - Sb_SbH3 [LENNARD_JONES] p_0/k_B: 163.45960 [K], p_1: 3.83200 [A], shift/k_B:   0.00000000 [K], tailcorrection: no
 Mof_Sr -  H_SbH3 [LENNARD_JONES] p_0/k_B:  51.16737 [K], p_1: 3.06700 [A], shift/k_B:   0.00000000 [K], tailcorrection: no
 Mof_Sr - C_C3H6O [LENNARD_JONES] p_0/k_B:  56.50490 [K], p_1: 3.53200 [A], shift/k_B:   0.00000000 [K], tailcorrection: no
 Mof_Sr - CH3_C3H6O [LENNARD_JONES] p_0/k_B: 107.65081 [K], p_1: 3.49700 [A], shift/k_B:   0.00000000 [K], tailcorrection: no
 Mof_Sr -  O_C3H6 [LENNARD_JONES] p_0/k_B:  75.46384 [K], p_1: 3.13858 [A], shift/k_B:   0.00000000 [K], tailcorrection: no
 Mof_Sr -      Ar [LENNARD_JONES] p_0/k_B: 119.02348 [K], p_1: 3.29200 [A], shift/k_B:   0.00000000 [K], tailcorrection: no
 Mof_Sr -   B_BF3 [LENNARD_JONES] p_0/k_B: 103.49525 [K], p_1: 3.66200 [A], shift/k_B:   0.00000000 [K], tailcorrection: no
 Mof_Sr -   F_BF3 [LENNARD_JONES] p_0/k_B:  54.54558 [K], p_1: 3.30200 [A], shift/k_B:   0.00000000 [K], tailcorrection: no
 Mof_Sr - Si_SiF4 [LENNARD_JONES] p_0/k_B: 154.66861 [K], p_1: 3.76950 [A], shift/k_B:   0.00000000 [K], tailcorrection: no
 Mof_Sr -  F_SiF4 [LENNARD_JONES] p_0/k_B:  54.54558 [K], p_1: 3.30200 [A], shift/k_B:   0.00000000 [K], tailcorrection: no
 Mof_Sr - Ge_GeF4 [LENNARD_JONES] p_0/k_B: 150.16876 [K], p_1: 3.76200 [A], shift/k_B:   0.00000000 [K], tailcorrection: no
 Mof_Sr -  F_GeF4 [LENNARD_JONES] p_0/k_B:  54.54558 [K], p_1: 3.30200 [A], shift/k_B:   0.00000000 [K], tailcorrection: no
 Mof_Sr -   C_C=O [LENNARD_JONES] p_0/k_B:  84.50585 [K], p_1: 3.27000 [A], shift/k_B:   0.00000000 [K], tailcorrection: no
 Mof_Sr -   O_C=O [LENNARD_JONES] p_0/k_B: 109.09658 [K], p_1: 3.04700 [A], shift/k_B:   0.00000000 [K], tailcorrection: no
 Mof_Sr -   H_C=O [LENNARD_JONES] p_0/k_B:  24.38868 [K], p_1: 2.99400 [A], shift/k_B:   0.00000000 [K], tailcorrection: no
 Mof_Sr -     S_S [LENNARD_JONES] p_0/k_B: 171.93894 [K], p_1: 3.48700 [A], shift/k_B:   0.00000000 [K], tailcorrection: no
 Mof_Sr -     H_S [LENNARD_JONES] p_0/k_B:   0.00000 [K], p_1: 1.62200 [A], shift/k_B:   0.00000000 [K], tailcorrection: no
 Mof_Sr -     M_S [LENNARD_JONES] p_0/k_B:   0.00000 [K], p_1: 1.62200 [A], shift/k_B:   0.00000000 [K], tailcorrection: no
 Mof_Sr -     Al1 [LENNARD_JONES] p_0/k_B: 135.82001 [K], p_1: 3.57753 [A], shift/k_B:   0.00000000 [K], tailcorrection: no
 Mof_Sr -     Al2 [LENNARD_JONES] p_0/k_B: 135.82001 [K], p_1: 3.57753 [A], shift/k_B:   0.00000000 [K], tailcorrection: no
 Mof_Sr -      C3 [LENNARD_JONES] p_0/k_B:  75.22693 [K], p_1: 3.35850 [A], shift/k_B:   0.00000000 [K], tailcorrection: no
 Mof_Sr -      C4 [LENNARD_JONES] p_0/k_B:  75.22693 [K], p_1: 3.35850 [A], shift/k_B:   0.00000000 [K], tailcorrection: no
 Mof_Sr -      C5 [LENNARD_JONES] p_0/k_B:  75.22693 [K], p_1: 3.35850 [A], shift/k_B:   0.00000000 [K], tailcorrection: no
 Mof_Sr -      C6 [LENNARD_JONES] p_0/k_B:  75.22693 [K], p_1: 3.35850 [A], shift/k_B:   0.00000000 [K], tailcorrection: no
 Mof_Sr -      C7 [LENNARD_JONES] p_0/k_B:  75.22693 [K], p_1: 3.35850 [A], shift/k_B:   0.00000000 [K], tailcorrection: no
 Mof_Sr -      C8 [LENNARD_JONES] p_0/k_B:  75.22693 [K], p_1: 3.35850 [A], shift/k_B:   0.00000000 [K], tailcorrection: no
 Mof_Sr -      C9 [LENNARD_JONES] p_0/k_B:  75.22693 [K], p_1: 3.35850 [A], shift/k_B:   0.00000000 [K], tailcorrection: no
 Mof_Sr -     C10 [LENNARD_JONES] p_0/k_B:  75.22693 [K], p_1: 3.35850 [A], shift/k_B:   0.00000000 [K], tailcorrection: no
 Mof_Sr -     C11 [LENNARD_JONES] p_0/k_B:  75.22693 [K], p_1: 3.35850 [A], shift/k_B:   0.00000000 [K], tailcorrection: no
 Mof_Sr -     C12 [LENNARD_JONES] p_0/k_B:  75.22693 [K], p_1: 3.35850 [A], shift/k_B:   0.00000000 [K], tailcorrection: no
 Mof_Sr -     C13 [LENNARD_JONES] p_0/k_B:  75.22693 [K], p_1: 3.35850 [A], shift/k_B:   0.00000000 [K], tailcorrection: no
 Mof_Sr -     C14 [LENNARD_JONES] p_0/k_B:  75.22693 [K], p_1: 3.35850 [A], shift/k_B:   0.00000000 [K], tailcorrection: no
 Mof_Sr -     C15 [LENNARD_JONES] p_0/k_B:  75.22693 [K], p_1: 3.35850 [A], shift/k_B:   0.00000000 [K], tailcorrection: no
 Mof_Sr -     C16 [LENNARD_JONES] p_0/k_B:  75.22693 [K], p_1: 3.35850 [A], shift/k_B:   0.00000000 [K], tailcorrection: no
 Mof_Sr -     C17 [LENNARD_JONES] p_0/k_B:  75.22693 [K], p_1: 3.35850 [A], shift/k_B:   0.00000000 [K], tailcorrection: no
 Mof_Sr -     C18 [LENNARD_JONES] p_0/k_B:  75.22693 [K], p_1: 3.35850 [A], shift/k_B:   0.00000000 [K], tailcorrection: no
 Mof_Sr -     O19 [LENNARD_JONES] p_0/k_B:  75.46384 [K], p_1: 3.13858 [A], shift/k_B:   0.00000000 [K], tailcorrection: no
 Mof_Sr -     O20 [LENNARD_JONES] p_0/k_B:  75.46384 [K], p_1: 3.13858 [A], shift/k_B:   0.00000000 [K], tailcorrection: no
[...]
	Block[ 3]            0.00000 [K]
	Block[ 4]            0.00000 [K]
	------------------------------------------------------------------------------
	Average              0.00000 [K] +/-            0.00000 [K]

Average Cation Bend angle inversion energy:
===========================================
	Block[ 0]            0.00000 [K]
	Block[ 1]            0.00000 [K]
	Block[ 2]            0.00000 [K]
	Block[ 3]            0.00000 [K]
	Block[ 4]            0.00000 [K]
	------------------------------------------------------------------------------
	Average              0.00000 [K] +/-            0.00000 [K]

Average Cation Torsion energy:
==============================
	Block[ 0]            0.00000 [K]
	Block[ 1]            0.00000 [K]
	Block[ 2]            0.00000 [K]
	Block[ 3]            0.00000 [K]
	Block[ 4]            0.00000 [K]
	------------------------------------------------------------------------------
	Average              0.00000 [K] +/-            0.00000 [K]

Average Cation Improper Torsion energy:
=======================================
	Block[ 0]            0.00000 [K]
	Block[ 1]            0.00000 [K]
	Block[ 2]            0.00000 [K]
	Block[ 3]            0.00000 [K]
	Block[ 4]            0.00000 [K]
	------------------------------------------------------------------------------
	Average              0.00000 [K] +/-            0.00000 [K]

Average Cation Bond-Bond cross term energy:
=================================================
	Block[ 0]            0.00000 [K]
	Block[ 1]            0.00000 [K]
	Block[ 2]            0.00000 [K]
	Block[ 3]            0.00000 [K]
	Block[ 4]            0.00000 [K]
	------------------------------------------------------------------------------
	Average              0.00000 [K] +/-            0.00000 [K]

Average Cation Bend-Bend cross term energy:
===========================================
	Block[ 0]            0.00000 [K]
	Block[ 1]            0.00000 [K]
	Block[ 2]            0.00000 [K]
	Block[ 3]            0.00000 [K]
	Block[ 4]            0.00000 [K]
	------------------------------------------------------------------------------
	Average              0.00000 [K] +/-            0.00000 [K]

Average Cation Bond-Bend cross term energy:
==============================================
	Block[ 0]            0.00000 [K]
	Block[ 1]            0.00000 [K]
	Block[ 2]            0.00000 [K]
	Block[ 3]            0.00000 [K]
	Block[ 4]            0.00000 [K]
	------------------------------------------------------------------------------
	Average              0.00000 [K] +/-            0.00000 [K]

Average Cation Bond-Torsion cross term energy:
==============================================
	Block[ 0]            0.00000 [K]
	Block[ 1]            0.00000 [K]
	Block[ 2]            0.00000 [K]
	Block[ 3]            0.00000 [K]
	Block[ 4]            0.00000 [K]
	------------------------------------------------------------------------------
	Average              0.00000 [K] +/-            0.00000 [K]

Average Cation Bend-Torsion cross term energy:
==============================================
	Block[ 0]            0.00000 [K]
	Block[ 1]            0.00000 [K]
	Block[ 2]            0.00000 [K]
	Block[ 3]            0.00000 [K]
	Block[ 4]            0.00000 [K]
	------------------------------------------------------------------------------
	Average              0.00000 [K] +/-            0.00000 [K]

Average Cation Intra Van der Waals energy:
==========================================
	Block[ 0]            0.00000 [K]
	Block[ 1]            0.00000 [K]
	Block[ 2]            0.00000 [K]
	Block[ 3]            0.00000 [K]
	Block[ 4]            0.00000 [K]
	------------------------------------------------------------------------------
	Average              0.00000 [K] +/-            0.00000 [K]

Average Cation Intra charge-charge Coulomb energy:
====================================
	Block[ 0]            0.00000 [K]
	Block[ 1]            0.00000 [K]
	Block[ 2]            0.00000 [K]
	Block[ 3]            0.00000 [K]
	Block[ 4]            0.00000 [K]
	------------------------------------------------------------------------------
	Average              0.00000 [K] +/-            0.00000 [K]

Average Cation Intra charge-bonddipole Coulomb energy:
====================================
	Block[ 0]            0.00000 [K]
	Block[ 1]            0.00000 [K]
	Block[ 2]            0.00000 [K]
	Block[ 3]            0.00000 [K]
	Block[ 4]            0.00000 [K]
	------------------------------------------------------------------------------
	Average              0.00000 [K] +/-            0.00000 [K]

Average Cation Intra bonddipole-bonddipole Coulomb energy:
====================================
	Block[ 0]            0.00000 [K]
	Block[ 1]            0.00000 [K]
	Block[ 2]            0.00000 [K]
	Block[ 3]            0.00000 [K]
	Block[ 4]            0.00000 [K]
	------------------------------------------------------------------------------
	Average              0.00000 [K] +/-            0.00000 [K]

Average Host-Host energy:
=========================
	Block[ 0] 0.00000            Van der Waals: 0.00000            Coulomb: 0.00000            [K]
	Block[ 1] 0.00000            Van der Waals: 0.00000            Coulomb: 0.00000            [K]
	Block[ 2] 0.00000            Van der Waals: 0.00000            Coulomb: 0.00000            [K]
	Block[ 3] 0.00000            Van der Waals: 0.00000            Coulomb: 0.00000            [K]
	Block[ 4] 0.00000            Van der Waals: 0.00000            Coulomb: 0.00000            [K]
	------------------------------------------------------------------------------
	Average   0.00000            Van der Waals: 0.000000           Coulomb: 0.00000            [K]
	      +/- 0.00000                       +/- 0.000000                +/- 0.00000            [K]

Average Adsorbate-Adsorbate energy:
===================================
	Block[ 0] 0.00000            Van der Waals: 0.00000            Coulomb: 0.00000            [K]
	Block[ 1] 0.00000            Van der Waals: 0.00000            Coulomb: 0.00000            [K]
	Block[ 2] 0.00000            Van der Waals: 0.00000            Coulomb: 0.00000            [K]
	Block[ 3] 0.00000            Van der Waals: 0.00000            Coulomb: 0.00000            [K]
	Block[ 4] 0.00000            Van der Waals: 0.00000            Coulomb: 0.00000            [K]
	------------------------------------------------------------------------------
	Average   0.00000            Van der Waals: 0.000000           Coulomb: 0.00000            [K]
	      +/- 0.00000                       +/- 0.000000                +/- 0.00000            [K]

Average Cation-Cation energy:
=============================
	Block[ 0] 0.00000            Van der Waals: 0.00000            Coulomb: 0.00000            [K]
	Block[ 1] 0.00000            Van der Waals: 0.00000            Coulomb: 0.00000            [K]
	Block[ 2] 0.00000            Van der Waals: 0.00000            Coulomb: 0.00000            [K]
	Block[ 3] 0.00000            Van der Waals: 0.00000            Coulomb: 0.00000            [K]
	Block[ 4] 0.00000            Van der Waals: 0.00000            Coulomb: 0.00000            [K]
	------------------------------------------------------------------------------
	Average   0.00000            Van der Waals: 0.000000           Coulomb: 0.00000            [K]
	      +/- 0.00000                       +/- 0.000000                +/- 0.00000            [K]

Average Host-Adsorbate energy:
==============================
	Block[ 0] 0.00000            Van der Waals: 0.00000            Coulomb: 0.00000            [K]
	Block[ 1] 0.00000            Van der Waals: 0.00000            Coulomb: 0.00000            [K]
	Block[ 2] 0.00000            Van der Waals: 0.00000            Coulomb: 0.00000            [K]
	Block[ 3] 0.00000            Van der Waals: 0.00000            Coulomb: 0.00000            [K]
	Block[ 4] 0.00000            Van der Waals: 0.00000            Coulomb: 0.00000            [K]
	------------------------------------------------------------------------------
	Average   0.00000            Van der Waals: 0.000000           Coulomb: 0.00000            [K]
	      +/- 0.00000                       +/- 0.000000                +/- 0.00000            [K]

Average Host-Cation energy:
===========================
	Block[ 0] 0.00000            Van der Waals: 0.00000            Coulomb: 0.00000            [K]
	Block[ 1] 0.00000            Van der Waals: 0.00000            Coulomb: 0.00000            [K]
	Block[ 2] 0.00000            Van der Waals: 0.00000            Coulomb: 0.00000            [K]
	Block[ 3] 0.00000            Van der Waals: 0.00000            Coulomb: 0.00000            [K]
	Block[ 4] 0.00000            Van der Waals: 0.00000            Coulomb: 0.00000            [K]
	------------------------------------------------------------------------------
	Average   0.00000            Van der Waals: 0.000000           Coulomb: 0.00000            [K]
	      +/- 0.00000                       +/- 0.000000                +/- 0.00000            [K]

Average Adsorbate-Cation energy:
================================
	Block[ 0] 0.00000            Van der Waals: 0.00000            Coulomb: 0.00000            [K]
	Block[ 1] 0.00000            Van der Waals: 0.00000            Coulomb: 0.00000            [K]
	Block[ 2] 0.00000            Van der Waals: 0.00000            Coulomb: 0.00000            [K]
	Block[ 3] 0.00000            Van der Waals: 0.00000            Coulomb: 0.00000            [K]
	Block[ 4] 0.00000            Van der Waals: 0.00000            Coulomb: 0.00000            [K]
	------------------------------------------------------------------------------
	Average   0.00000            Van der Waals: 0.000000           Coulomb: 0.00000            [K]
	      +/- 0.00000                       +/- 0.000000                +/- 0.00000            [K]

Host polarization energy:
=======================
	Block[ 0]            0.00000 [K]
	Block[ 1]            0.00000 [K]
	Block[ 2]            0.00000 [K]
	Block[ 3]            0.00000 [K]
	Block[ 4]            0.00000 [K]
	------------------------------------------------------------------------------
	Average              0.00000 [K] +/-            0.00000 [K]

Adsorbate polarization energy:
=======================
	Block[ 0]            0.00000 [K]
	Block[ 1]            0.00000 [K]
	Block[ 2]            0.00000 [K]
	Block[ 3]            0.00000 [K]
	Block[ 4]            0.00000 [K]
	------------------------------------------------------------------------------
	Average              0.00000 [K] +/-            0.00000 [K]

Cation polarization energy:
=======================
	Block[ 0]            0.00000 [K]
	Block[ 1]            0.00000 [K]
	Block[ 2]            0.00000 [K]
	Block[ 3]            0.00000 [K]
	Block[ 4]            0.00000 [K]
	------------------------------------------------------------------------------
	Average              0.00000 [K] +/-            0.00000 [K]

Host back-polarization energy:
=======================
	Block[ 0]            0.00000 [K]
	Block[ 1]            0.00000 [K]
	Block[ 2]            0.00000 [K]
	Block[ 3]            0.00000 [K]
	Block[ 4]            0.00000 [K]
	------------------------------------------------------------------------------
	Average              0.00000 [K] +/-            0.00000 [K]

Adsorbate back-polarization energy:
=======================
	Block[ 0]            0.00000 [K]
	Block[ 1]            0.00000 [K]
	Block[ 2]            0.00000 [K]
	Block[ 3]            0.00000 [K]
	Block[ 4]            0.00000 [K]
	------------------------------------------------------------------------------
	Average              0.00000 [K] +/-            0.00000 [K]

Cation back-polarization energy:
=======================
	Block[ 0]            0.00000 [K]
	Block[ 1]            0.00000 [K]
	Block[ 2]            0.00000 [K]
	Block[ 3]            0.00000 [K]
	Block[ 4]            0.00000 [K]
	------------------------------------------------------------------------------
	Average              0.00000 [K] +/-            0.00000 [K]

Tail-correction energy:
=======================
	Block[ 0]            0.00000 [K]
	Block[ 1]            0.00000 [K]
	Block[ 2]            0.00000 [K]
	Block[ 3]            0.00000 [K]
	Block[ 4]            0.00000 [K]
	------------------------------------------------------------------------------
	Average              0.00000 [K] +/-            0.00000 [K]

Distance-constraints energy:
=======================
	Block[ 0]            0.00000 [K]
	Block[ 1]            0.00000 [K]
	Block[ 2]            0.00000 [K]
	Block[ 3]            0.00000 [K]
	Block[ 4]            0.00000 [K]
	------------------------------------------------------------------------------
	Average              0.00000 [K] +/-            0.00000 [K]

Angle-constraints energy:
=======================
	Block[ 0]            0.00000 [K]
	Block[ 1]            0.00000 [K]
	Block[ 2]            0.00000 [K]
	Block[ 3]            0.00000 [K]
	Block[ 4]            0.00000 [K]
	------------------------------------------------------------------------------
	Average              0.00000 [K] +/-            0.00000 [K]

Dihedral-constraints energy:
=======================
	Block[ 0]            0.00000 [K]
	Block[ 1]            0.00000 [K]
	Block[ 2]            0.00000 [K]
	Block[ 3]            0.00000 [K]
	Block[ 4]            0.00000 [K]
	------------------------------------------------------------------------------
	Average              0.00000 [K] +/-            0.00000 [K]

Inversion-bend constraints energy:
=======================
	Block[ 0]            0.00000 [K]
	Block[ 1]            0.00000 [K]
	Block[ 2]            0.00000 [K]
	Block[ 3]            0.00000 [K]
	Block[ 4]            0.00000 [K]
	------------------------------------------------------------------------------
	Average              0.00000 [K] +/-            0.00000 [K]

Out-of-plane-distance constraints energy:
=======================
	Block[ 0]            0.00000 [K]
	Block[ 1]            0.00000 [K]
	Block[ 2]            0.00000 [K]
	Block[ 3]            0.00000 [K]
	Block[ 4]            0.00000 [K]
	------------------------------------------------------------------------------
	Average              0.00000 [K] +/-            0.00000 [K]

Exclusion-constraints energy:
=======================
	Block[ 0]            0.00000 [K]
	Block[ 1]            0.00000 [K]
	Block[ 2]            0.00000 [K]
	Block[ 3]            0.00000 [K]
	Block[ 4]            0.00000 [K]
	------------------------------------------------------------------------------
	Average              0.00000 [K] +/-            0.00000 [K]

Total energy:
=============
	Block[ 0]            0.00000 [K]
	Block[ 1]            0.00000 [K]
	Block[ 2]            0.00000 [K]
	Block[ 3]            0.00000 [K]
	Block[ 4]            0.00000 [K]
	------------------------------------------------------------------------------
	Average              0.00000 [K] +/-            0.00000 [K]

Number of molecules:
====================

Component 0 [N2]
-------------------------------------------------------------
	Block[ 0] 0.00000            [-]
	Block[ 1] 0.00000            [-]
	Block[ 2] 0.00000            [-]
	Block[ 3] 0.00000            [-]
	Block[ 4] 0.00000            [-]
	------------------------------------------------------------------------------
	Average loading absolute                              0.0000000000 +/-       0.0000000000 [-]
	Average loading absolute [molecules/unit cell]        0.0000000000 +/-       0.0000000000 [-]
	Average loading absolute [mol/kg framework]                  0.0000000000 +/-       0.0000000000 [-]
	Average loading absolute [milligram/gram framework]          0.0000000000 +/-       0.0000000000 [-]
	Average loading absolute [cm^3 (STP)/gr framework]           0.0000000000 +/-       0.0000000000 [-]
	Average loading absolute [cm^3 (STP)/cm^3 framework]         0.0000000000 +/-       0.0000000000 [-]

	Block[ 0] 0.00000            [-]
	Block[ 1] 0.00000            [-]
	Block[ 2] 0.00000            [-]
	Block[ 3] 0.00000            [-]
	Block[ 4] 0.00000            [-]
	------------------------------------------------------------------------------
	Average loading excess                              0.0000000000 +/-       0.0000000000 [-]
	Average loading excess [molecules/unit cell]        0.0000000000 +/-       0.0000000000 [-]
	Average loading excess [mol/kg framework]                    0.0000000000 +/-       0.0000000000 [-]
	Average loading excess [milligram/gram framework]            0.0000000000 +/-       0.0000000000 [-]
	Average loading excess [cm^3 (STP)/gr framework]             0.0000000000 +/-       0.0000000000 [-]
	Average loading excess [cm^3 (STP)/cm^3 framework]           0.0000000000 +/-       0.0000000000 [-]


Average Widom Rosenbluth factor:
================================
	Block[ 0] 0 [-]
	Block[ 1] 0 [-]
	Block[ 2] 0 [-]
	Block[ 3] 0 [-]
	Block[ 4] 0 [-]
	------------------------------------------------------------------------------
	[N2] Average Widom Rosenbluth-weight:   0 +/- 0.000000 [-]

Average Widom chemical potential:
=================================
	Block[ 0] 0 [-]
	Block[ 1] 0 [-]
	Block[ 2] 0 [-]
	Block[ 3] 0 [-]
	Block[ 4] 0 [-]
	------------------------------------------------------------------------------
	[N2] Average chemical potential:   0 +/- 0.000000 [K]

Average Widom Ideal-gas contribution:
=====================================
	Block[ 0] 0 [-]
	Block[ 1] 0 [-]
	Block[ 2] 0 [-]
	Block[ 3] 0 [-]
	Block[ 4] 0 [-]
	------------------------------------------------------------------------------
	[N2] Average Widom Ideal-gas chemical potential:   0 +/- 0.000000 [-]

Average Widom excess contribution:
==================================
	Block[ 0] 0 [-]
	Block[ 1] 0 [-]
	Block[ 2] 0 [-]
	Block[ 3] 0 [-]
	Block[ 4] 0 [-]
	------------------------------------------------------------------------------
	[N2] Average Widom excess chemical potential:   0 +/- 0.000000 [-]

Average Gibbs Widom Rosenbluth factor:
======================================
	Block[ 0] 0 [-]
	Block[ 1] 0 [-]
	Block[ 2] 0 [-]
	Block[ 3] 0 [-]
	Block[ 4] 0 [-]
	------------------------------------------------------------------------------
	[N2] Average Gibbs Widom Rosenbluth-weight:   0 +/- 0.000000 [-]

Average Gibbs Widom chemical potential:
=======================================
	Block[ 0] 0 [-]
	Block[ 1] 0 [-]
	Block[ 2] 0 [-]
	Block[ 3] 0 [-]
	Block[ 4] 0 [-]
	------------------------------------------------------------------------------
	[N2] Average Gibbs chemical potential:   0 +/- 0.000000 [K]

Average Gibbs Widom Ideal-gas contribution:
===========================================
	Block[ 0] 0 [-]
	Block[ 1] 0 [-]
	Block[ 2] 0 [-]
	Block[ 3] 0 [-]
	Block[ 4] 0 [-]
	------------------------------------------------------------------------------
	[N2] Average Gibbs Ideal-gas chemical potential:   0 +/- 0.000000 [-]

Average Gibbs Widom excess contribution:
===========================================
	Block[ 0] 0 [-]
	Block[ 1] 0 [-]
	Block[ 2] 0 [-]
	Block[ 3] 0 [-]
	Block[ 4] 0 [-]
	------------------------------------------------------------------------------
	[N2] Average Gibbs excess chemical potential:   0 +/- 0.000000 [-]

Average Henry coefficient:
==========================
	Block[ 0] 0 [mol/kg/Pa]
	Block[ 1] 0 [mol/kg/Pa]
	Block[ 2] 0 [mol/kg/Pa]
	Block[ 3] 0 [mol/kg/Pa]
	Block[ 4] 0 [mol/kg/Pa]
	------------------------------------------------------------------------------
	[N2] Average Henry coefficient:  0 +/- 0 [mol/kg/Pa]

Average adsorption energy <U_gh>_1-<U_h>_0 obtained from Widom-insertion:
(Note: the total heat of adsorption is dH=<U_gh>_1-<U_h>_0 - <U_g> - RT)
=========================================================================

Simulation finished,  1 warnings
WARNING: INAPPROPRIATE NUMBER OF UNIT CELLS USED


Tue Jun 27 18:32:38 2023
Simulation finished on Tuesday, June 27.
The end time was 06:32 PM.

